LAMMPS data file Created by LigParGen - (Written by Leela S. Dodda)

      25 atoms
      24 bonds
      38 angles
      44 dihedrals
      11 impropers
 
      25 atom types
      24 bond types
      38 angle types
      44 dihedral types
      11 improper types
 
   -1.128520    48.871480 xlo xhi
   -0.538760    49.461240 ylo yhi
   -0.971490    49.028510 zlo zhi

Masses

       1     12.011  
       2     15.999  
       3     15.999  
       4     12.011  
       5     12.011  
       6     12.011  
       7     15.999  
       8      1.008  
       9      1.008  
      10     15.999  
      11      1.008  
      12     15.999  
      13      1.008  
      14     12.011  
      15     15.999  
      16     15.999  
      17      1.008  
      18     12.011  
      19     15.999  
      20     15.999  
      21      1.008  
      22     12.011  
      23      1.008  
      24      1.008  
      25      1.008  

Pair Coeffs 

       1      0.070  3.5500000 
       2      0.210  2.9600000 
       3      0.210  2.9600000 
       4      0.066  3.5000000 
       5      0.066  3.5000000 
       6      0.066  3.5000000 
       7      0.140  2.9000000 
       8      0.030  2.5000000 
       9      0.030  2.5000000 
      10      0.140  2.9000000 
      11      0.030  2.5000000 
      12      0.140  2.9000000 
      13      0.030  2.5000000 
      14      0.070  3.5500000 
      15      0.210  2.9600000 
      16      0.170  3.1200000 
      17      0.000  0.0000000 
      18      0.070  3.5500000 
      19      0.170  3.1200000 
      20      0.210  2.9600000 
      21      0.000  0.0000000 
      22      0.066  3.5000000 
      23      0.030  2.5000000 
      24      0.030  2.5000000 
      25      0.030  2.5000000 

Bond Coeffs 

       1   656.0000     1.2500 
       2   656.0000     1.2500 
       3   317.0000     1.5220 
       4   268.0000     1.5290 
       5   268.0000     1.5290 
       6   320.0000     1.4100 
       7   340.0000     1.0900 
       8   340.0000     1.0900 
       9   320.0000     1.4100 
      10   340.0000     1.0900 
      11   320.0000     1.4100 
      12   340.0000     1.0900 
      13   214.0000     1.3270 
      14   570.0000     1.2290 
      15   450.0000     1.3640 
      16   553.0000     0.9450 
      17   214.0000     1.3270 
      18   450.0000     1.3640 
      19   570.0000     1.2290 
      20   553.0000     0.9450 
      21   320.0000     1.4100 
      22   340.0000     1.0900 
      23   340.0000     1.0900 
      24   340.0000     1.0900 

Angle Coeffs 

       1     80.000    126.000
       2     70.000    117.000
       3     63.000    111.100
       4     58.350    112.700
       5     50.000    109.500
       6     37.500    110.700
       7     37.500    110.700
       8     50.000    109.500
       9     37.500    110.700
      10     50.000    109.500
      11     35.000    109.500
      12     83.000    116.900
      13     83.000    123.400
      14     69.900    118.180
      15     35.000    113.000
      16     83.000    116.900
      17     69.900    118.180
      18     83.000    123.400
      19     35.000    113.000
      20     60.000    109.500
      21     35.000    109.500
      22     35.000    109.500
      23     35.000    109.500
      24     50.000    109.500
      25     33.000    107.800
      26     35.000    109.500
      27     50.000    109.500
      28     80.000    121.000
      29     70.000    117.000
      30     37.500    110.700
      31     37.500    110.700
      32     33.000    107.800
      33     80.000    121.000
      34     35.000    109.500
      35     35.000    109.500
      36     33.000    107.800
      37     33.000    107.800
      38     35.000    109.500

Dihedral Coeffs  

       1      0.000      0.000      0.000      0.000 
       2     -2.060     -0.313      0.315      0.000 
       3      1.711     -0.500      0.663      0.000 
       4     -1.220     -0.126      0.422      0.000 
       5      0.000      5.124      0.000      0.000 
       6      0.000      5.500      0.000      0.000 
       7     -1.220     -0.126      0.422      0.000 
       8      4.669      5.124      0.000      0.000 
       9      0.000      5.500      0.000      0.000 
      10      0.650     -0.250      0.670      0.000 
      11      0.000      0.000      0.760      0.000 
      12      0.000      0.000      0.760      0.000 
      13      0.000      0.000      0.000      0.000 
      14      0.000      0.000      0.468      0.000 
      15      0.000      0.000      0.300      0.000 
      16     -1.220     -0.126      0.422      0.000 
      17     -0.550      0.000      0.000      0.000 
      18      0.000      0.000      0.300      0.000 
      19      0.000      0.000     -0.100      0.000 
      20      0.000      0.820      0.000      0.000 
      21      0.000      0.000      0.300      0.000 
      22      0.000      0.000      0.000      0.000 
      23      0.000      5.500      0.000      0.000 
      24      0.000      0.000      0.468      0.000 
      25      0.000      0.000      0.300      0.000 
      26      0.000      0.820      0.000      0.000 
      27      0.000      0.000      0.198      0.000 
      28      0.000      0.000      0.760      0.000 
      29      1.711     -0.500      0.663      0.000 
      30      0.000      0.000      0.468      0.000 
      31      0.000      0.000      0.468      0.000 
      32      0.000      0.000      0.760      0.000 
      33      0.000      0.000      0.198      0.000 
      34      0.000      0.000      0.760      0.000 
      35      0.000      0.000      0.468      0.000 
      36      0.000      0.000      0.300      0.000 
      37      0.000      5.500      0.000      0.000 
      38      0.000      5.124      0.000      0.000 
      39     -1.220     -0.126      0.422      0.000 
      40     -0.550      0.000      0.000      0.000 
      41      4.669      5.124      0.000      0.000 
      42     -6.180      0.000      0.000      0.000 
      43      0.000      0.000      0.300      0.000 
      44      0.000      0.000      0.000      0.000 

Improper Coeffs 

       1     10.500      -1       2 
       2      0.000      -1       2 
       3      0.000      -1       2 
       4      0.000      -1       2 
       5      0.000      -1       2 
       6      0.000      -1       2 
       7      0.000      -1       2 
       8     10.500      -1       2 
       9     10.500      -1       2 
      10      0.000      -1       2 
      11      0.000      -1       2 

Atoms 

     1      1      1 0.42770000    1.000  1.00000  0.00000
     2      1      2 -0.57130000   -0.271  1.00000  0.00000
     3      1      3 -0.57130000    1.799  1.00000 -0.97149
     4      1      4 -0.01510000    1.625  0.99823  1.40206
     5      1      5 0.03440000    1.553  2.41126  2.00396
     6      1      6 -0.03760000    2.049  2.45636  3.46656
     7      1      7 -0.33570000    2.046  3.77745  4.02930
     8      1      8 0.11440000    3.081  2.10292  3.52954
     9      1      9 0.11440000    1.457  1.79993  4.11358
    10      1     10 -0.25920000    2.227  3.41358  1.19836
    11      1     11 0.14440000    0.507  2.73516  2.00515
    12      1     12 -0.37150000    1.006 -0.03385  2.25329
    13      1     13 0.15060000    2.668  0.67971  1.29796
    14      1     14 0.53700000   -0.216  0.02322  2.83985
    15      1     15 -0.43180000   -0.454 -0.53876  3.89953
    16      1     16 -0.55610000   -1.129  0.78134  2.20853
    17      1     17 0.45920000   -0.898  0.88162  1.23754
    18      1     18 0.51970000    3.553  3.31269  1.00547
    19      1     19 -0.44490000    3.972  4.33327  0.23600
    20      1     20 -0.46550000    4.330  2.47153  1.42040
    21      1     21 0.39640000    4.912  4.11302  0.10756
    22      1     22 -0.05120000    0.739  4.29318  4.23846
    23      1     23 0.07100000    0.828  5.21356  4.82093
    24      1     24 0.07100000    0.124  3.58487  4.80041
    25      1     25 0.07100000    0.264  4.54250  3.28574

Bonds 

     1      1      2      1
     2      2      3      1
     3      3      4      1
     4      4      5      4
     5      5      6      5
     6      6      7      6
     7      7      8      6
     8      8      9      6
     9      9     10      5
    10     10     11      5
    11     11     12      4
    12     12     13      4
    13     13     14     12
    14     14     15     14
    15     15     16     14
    16     16     17     16
    17     17     18     10
    18     18     19     18
    19     19     20     18
    20     20     21     19
    21     21     22      7
    22     22     23     22
    23     23     24     22
    24     24     25     22

Angles 

     1      1      2      1      3
     2      2      2      1      4
     3      3      1      4      5
     4      4      4      5      6
     5      5      5      6      7
     6      6      5      6      8
     7      7      5      6      9
     8      8      4      5     10
     9      9      4      5     11
    10     10      1      4     12
    11     11      1      4     13
    12     12      4     12     14
    13     13     12     14     15
    14     14     12     14     16
    15     15     14     16     17
    16     16      5     10     18
    17     17     10     18     19
    18     18     10     18     20
    19     19     18     19     21
    20     20      6      7     22
    21     21      7     22     23
    22     22      7     22     24
    23     23      7     22     25
    24     24      5      4     12
    25     25     24     22     25
    26     26      7      6      9
    27     27      6      5     10
    28     28     19     18     20
    29     29      3      1      4
    30     30      6      5     11
    31     31      5      4     13
    32     32     23     22     25
    33     33     15     14     16
    34     34      7      6      8
    35     35     12      4     13
    36     36      8      6      9
    37     37     23     22     24
    38     38     10      5     11

Dihedrals

     1      1      5      4      1      2 
     2      2      6      5      4      1 
     3      3      7      6      5      4 
     4      4     14     12      4      1 
     5      5     15     14     12      4 
     6      6     17     16     14     12 
     7      7     18     10      5      4 
     8      8     19     18     10      5 
     9      9     21     19     18     10 
    10     10     22      7      6      5 
    11     11     23     22      7      6 
    12     12     22      7      6      9 
    13     13      5      4      1      3 
    14     14     10      5      6      8 
    15     15     13      4      5     11 
    16     16     14     12      4      5 
    17     17     10      5      6      7 
    18     18      8      6      5      4 
    19     19     11      5      4      1 
    20     20     12      4      1      3 
    21     21      9      6      5      4 
    22     22     13      4      1      2 
    23     23     17     16     14     15 
    24     24     10      5      6      9 
    25     25     11      5      6      8 
    26     26     12      4      1      2 
    27     27     14     12      4     13 
    28     28     22      7      6      8 
    29     29     12      4      5      6 
    30     30     13      4      5     10 
    31     31     11      5      6      7 
    32     32     25     22      7      6 
    33     33     18     10      5     11 
    34     34     24     22      7      6 
    35     35     12      4      5     11 
    36     36     13      4      5      6 
    37     37     21     19     18     20 
    38     38     20     18     10      5 
    39     39     18     10      5      6 
    40     40     12      4      5     10 
    41     41     16     14     12      4 
    42     42     10      5      4      1 
    43     43     11      5      6      9 
    44     44     13      4      1      3 

Impropers

     1      1      1      2      3      4 
     2      2      6      5      7      8 
     3      3      6      9      5      7 
     4      4      5     10      4      6 
     5      5      5     11      4      6 
     6      6      4      1     12      5 
     7      7      4      1      5     13 
     8      8     14     12     15     16 
     9      9     18     19     20     10 
    10     10     22     23      7     24 
    11     11     22     25     23      7 

