#GLC1_anion

25 atoms
7 atom types

24 bonds
9 bond types

38 angles
14 angle types

44 dihedrals
16 dihedral types

11 impropers
2 improper types

-1.12852  48.87148  xlo xhi
-0.53876  49.46124  ylo yhi
-0.97149  49.02851  zlo zhi

Masses

1  12.011
2  15.999
3  12.011
4  15.999
5  1.008
6  15.999
7  1.008

Pair Coeffs

1  0.07  3.55
2  0.21  2.96
3  0.066  3.5
4  0.14  2.9
5  0.03  2.5
6  0.17  3.12
7  0.0  0.0

Bond Coeffs

1  656.0  1.25
2  317.0  1.522
3  268.0  1.529
4  320.0  1.41
5  340.0  1.09
6  214.0  1.327
7  570.0  1.229
8  450.0  1.364
9  553.0  0.945

Angle Coeffs

1  80.0  126.0
2  70.0  117.0
3  63.0  111.1
4  58.35  112.7
5  50.0  109.5
6  37.5  110.7
7  35.0  109.5
8  83.0  116.9
9  83.0  123.4
10  69.9  118.18
11  35.0  113.0
12  60.0  109.5
13  33.0  107.8
14  80.0  121.0

Dihedral Coeffs

1  0.0  0.0  0.0  0.0
2  -2.06  -0.313  0.315  0.0
3  1.711  -0.5  0.663  0.0
4  -1.22  -0.126  0.422  0.0
5  0.0  5.124  0.0  0.0
6  0.0  5.5  0.0  0.0
7  4.669  5.124  0.0  0.0
8  0.65  -0.25  0.67  0.0
9  0.0  0.0  0.76  0.0
10  0.0  0.0  0.468  0.0
11  0.0  0.0  0.3  0.0
12  -0.55  0.0  0.0  0.0
13  0.0  0.0  -0.1  0.0
14  0.0  0.82  0.0  0.0
15  0.0  0.0  0.198  0.0
16  -6.18  0.0  0.0  0.0

Improper Coeffs

1  10.5  -1.0  2.0
2  0.0  -1.0  2.0

Atoms # full

1  1  1   0.4277   1   1   0
2  1  2  -0.5713  -0.271   1   0
3  1  2  -0.5713   1.799   1  -0.97149
4  1  3  -0.0151   1.625   0.99823   1.40206
5  1  3   0.0344   1.553   2.41126   2.00396
6  1  3  -0.0376   2.049   2.45636   3.46656
7  1  4  -0.3357   2.046   3.77745   4.0293
8  1  5   0.1144   3.081   2.10292   3.52954
9  1  5   0.1144   1.457   1.79993   4.11358
10  1  4  -0.2592   2.227   3.41358   1.19836
11  1  5   0.1444   0.507   2.73516   2.00515
12  1  4  -0.3715   1.006  -0.03385   2.25329
13  1  5   0.1506   2.668   0.67971   1.29796
14  1  1   0.537  -0.216   0.02322   2.83985
15  1  2  -0.4318  -0.454  -0.53876   3.89953
16  1  6  -0.5561  -1.129   0.78134   2.20853
17  1  7   0.4592  -0.898   0.88162   1.23754
18  1  1   0.5197   3.553   3.31269   1.00547
19  1  6  -0.4449   3.972   4.33327   0.236
20  1  2  -0.4655   4.33   2.47153   1.4204
21  1  7   0.3964   4.912   4.11302   0.10756
22  1  3  -0.0512   0.739   4.29318   4.23846
23  1  5   0.071   0.828   5.21356   4.82093
24  1  5   0.071   0.124   3.58487   4.80041
25  1  5   0.071   0.264   4.5425   3.28574

Bonds

1  1  2  1
2  1  3  1
3  2  4  1
4  3  5  4
5  3  6  5
6  4  7  6
7  5  8  6
8  5  9  6
9  4  10  5
10  5  11  5
11  4  12  4
12  5  13  4
13  6  14  12
14  7  15  14
15  8  16  14
16  9  17  16
17  6  18  10
18  8  19  18
19  7  20  18
20  9  21  19
21  4  22  7
22  5  23  22
23  5  24  22
24  5  25  22

Angles

1  1  2  1  3
2  2  2  1  4
3  3  1  4  5
4  4  4  5  6
5  5  5  6  7
6  6  5  6  8
7  6  5  6  9
8  5  4  5  10
9  6  4  5  11
10  5  1  4  12
11  7  1  4  13
12  8  4  12  14
13  9  12  14  15
14  10  12  14  16
15  11  14  16  17
16  8  5  10  18
17  10  10  18  19
18  9  10  18  20
19  11  18  19  21
20  12  6  7  22
21  7  7  22  23
22  7  7  22  24
23  7  7  22  25
24  5  5  4  12
25  13  24  22  25
26  7  7  6  9
27  5  6  5  10
28  14  19  18  20
29  2  3  1  4
30  6  6  5  11
31  6  5  4  13
32  13  23  22  25
33  14  15  14  16
34  7  7  6  8
35  7  12  4  13
36  13  8  6  9
37  13  23  22  24
38  7  10  5  11

Dihedrals

1  1  5  4  1  2
2  2  6  5  4  1
3  3  7  6  5  4
4  4  14  12  4  1
5  5  15  14  12  4
6  6  17  16  14  12
7  4  18  10  5  4
8  7  19  18  10  5
9  6  21  19  18  10
10  8  22  7  6  5
11  9  23  22  7  6
12  9  22  7  6  9
13  1  5  4  1  3
14  10  10  5  6  8
15  11  13  4  5  11
16  4  14  12  4  5
17  12  10  5  6  7
18  11  8  6  5  4
19  13  11  5  4  1
20  14  12  4  1  3
21  11  9  6  5  4
22  1  13  4  1  2
23  6  17  16  14  15
24  10  10  5  6  9
25  11  11  5  6  8
26  14  12  4  1  2
27  15  14  12  4  13
28  9  22  7  6  8
29  3  12  4  5  6
30  10  13  4  5  10
31  10  11  5  6  7
32  9  25  22  7  6
33  15  18  10  5  11
34  9  24  22  7  6
35  10  12  4  5  11
36  11  13  4  5  6
37  6  21  19  18  20
38  5  20  18  10  5
39  4  18  10  5  6
40  12  12  4  5  10
41  7  16  14  12  4
42  16  10  5  4  1
43  11  11  5  6  9
44  1  13  4  1  3

Impropers

1  1  1  2  3  4
2  2  6  5  7  8
3  2  6  9  5  7
4  2  5  10  4  6
5  2  5  11  4  6
6  2  4  1  12  5
7  2  4  1  5  13
8  1  14  12  15  16
9  1  18  19  20  10
10  2  22  23  7  24
11  2  22  25  23  7
