LAMMPS data file Created by LigParGen - (Written by Leela S. Dodda)

       7 atoms
       6 bonds
       9 angles
       6 dihedrals
       3 impropers
 
       7 atom types
       6 bond types
       9 angle types
       6 dihedral types
       3 improper types
 
   -0.916220    49.083780 xlo xhi
    0.109070    50.109070 ylo yhi
   -1.141830    48.858170 zlo zhi

Masses

       1     12.011  
       2     12.011  
       3     15.999  
       4     15.999  
       5      1.008  
       6      1.008  
       7      1.008  

Pair Coeffs 

       1      0.070  3.5500000 
       2      0.066  3.5000000 
       3      0.210  2.9600000 
       4      0.210  2.9600000 
       5      0.030  2.5000000 
       6      0.030  2.5000000 
       7      0.030  2.5000000 

Bond Coeffs 

       1   317.0000     1.5220 
       2   656.0000     1.2500 
       3   656.0000     1.2500 
       4   340.0000     1.0900 
       5   340.0000     1.0900 
       6   340.0000     1.0900 

Angle Coeffs 

       1     70.000    117.000
       2     70.000    117.000
       3     35.000    109.500
       4     35.000    109.500
       5     35.000    109.500
       6     80.000    126.000
       7     33.000    107.800
       8     33.000    107.800
       9     33.000    107.800

Dihedral Coeffs  

       1      0.000      0.000      0.000      0.000 
       2      0.000      0.000      0.000      0.000 
       3      0.000      0.000      0.000      0.000 
       4      0.000      0.000      0.000      0.000 
       5      0.000      0.000      0.000      0.000 
       6      0.000      0.000      0.000      0.000 

Improper Coeffs 

       1     10.500      -1       2 
       2      0.000      -1       2 
       3      0.000      -1       2 

Atoms 

     1      1      1 0.42360000    1.000  1.00000  0.00000
     2      1      2 -0.28350000   -0.519  1.00000  0.00000
     3      1      3 -0.63790000    1.538  1.00000 -1.14183
     4      1      4 -0.63790000    1.528  1.00145  1.14717
     5      1      5 0.04520000   -0.916  1.00000 -1.01954
     6      1      6 0.04520000   -0.889  1.89083  0.51606
     7      1      7 0.04520000   -0.889  0.10907  0.51612

Bonds 

     1      1      2      1
     2      2      3      1
     3      3      4      1
     4      4      5      2
     5      5      6      2
     6      6      7      2

Angles 

     1      1      2      1      3
     2      2      2      1      4
     3      3      1      2      5
     4      4      1      2      6
     5      5      1      2      7
     6      6      3      1      4
     7      7      5      2      6
     8      8      5      2      7
     9      9      6      2      7

Dihedrals

     1      1      5      2      1      3 
     2      2      5      2      1      4 
     3      3      6      2      1      3 
     4      4      7      2      1      3 
     5      5      6      2      1      4 
     6      6      7      2      1      4 

Impropers

     1      1      1      2      3      4 
     2      2      2      1      5      6 
     3      3      2      1      5      7 

