#acetic_acid

8 atoms
6 atom types

7 bonds
5 bond types

10 angles
6 angle types

8 dihedrals
3 dihedral types

3 impropers
2 improper types

-1.18702  48.81298  xlo xhi
0  50.10028  ylo yhi
-1.95219  48.04781  zlo zhi

Masses

1  12.011
2  12.011
3  15.999
4  15.999
5  1.008
6  1.008

Pair Coeffs

1  0.066  3.5
2  0.07  3.55
3  0.21  2.96
4  0.17  3.12
5  0.03  2.5
6  0.0  0.0

Bond Coeffs

1  317.0  1.522
2  570.0  1.229
3  450.0  1.364
4  340.0  1.09
5  553.0  0.945

Angle Coeffs

1  80.0  120.4
2  70.0  108.0
3  35.0  109.5
4  35.0  113.0
5  33.0  107.8
6  80.0  121.0

Dihedral Coeffs

1  0.0  0.0  0.0  0.0
2  1.5  5.5  0.0  0.0
3  0.0  5.5  0.0  0.0

Improper Coeffs

1  10.5  -1.0  2.0
2  0.0  -1.0  2.0

Atoms # full

1  1  1  -0.3389   1   1   0
2  1  2   0.513  -0.498   1   0
3  1  3  -0.4467  -1.187   1   1.00741
4  1  4  -0.5588  -1.02   0.99842  -1.24656
5  1  5   0.1263   1.361   1   1.03246
6  1  5   0.1263   1.37   1.89979  -0.49803
7  1  5   0.1263   1.37   0.10028  -0.49799
8  1  6   0.4525  -0.347   0.99753  -1.95219

Bonds

1  1  2  1
2  2  3  2
3  3  4  2
4  4  5  1
5  4  6  1
6  4  7  1
7  5  8  4

Angles

1  1  1  2  3
2  2  1  2  4
3  3  2  1  5
4  3  2  1  6
5  3  2  1  7
6  4  2  4  8
7  5  6  1  7
8  5  5  1  6
9  6  3  2  4
10  5  5  1  7

Dihedrals

1  1  5  1  2  3
2  2  8  4  2  1
3  3  8  4  2  3
4  1  7  1  2  3
5  1  5  1  2  4
6  1  6  1  2  3
7  1  6  1  2  4
8  1  7  1  2  4

Impropers

1  1  2  1  3  4
2  2  1  2  5  6
3  2  1  2  5  7
