LAMMPS data file Created by LigParGen - (Written by Leela S. Dodda)

       8 atoms
       7 bonds
      10 angles
       8 dihedrals
       3 impropers
 
       8 atom types
       7 bond types
      10 angle types
       8 dihedral types
       3 improper types
 
   -1.187020    48.812980 xlo xhi
    0.100280    50.100280 ylo yhi
   -1.952190    48.047810 zlo zhi

Masses

       1     12.011  
       2     12.011  
       3     15.999  
       4     15.999  
       5      1.008  
       6      1.008  
       7      1.008  
       8      1.008  

Pair Coeffs 

       1      0.066  3.5000000 
       2      0.070  3.5500000 
       3      0.210  2.9600000 
       4      0.170  3.1200000 
       5      0.030  2.5000000 
       6      0.030  2.5000000 
       7      0.030  2.5000000 
       8      0.000  0.0000000 

Bond Coeffs 

       1   317.0000     1.5220 
       2   570.0000     1.2290 
       3   450.0000     1.3640 
       4   340.0000     1.0900 
       5   340.0000     1.0900 
       6   340.0000     1.0900 
       7   553.0000     0.9450 

Angle Coeffs 

       1     80.000    120.400
       2     70.000    108.000
       3     35.000    109.500
       4     35.000    109.500
       5     35.000    109.500
       6     35.000    113.000
       7     33.000    107.800
       8     33.000    107.800
       9     80.000    121.000
      10     33.000    107.800

Dihedral Coeffs  

       1      0.000      0.000      0.000      0.000 
       2      1.500      5.500      0.000      0.000 
       3      0.000      5.500      0.000      0.000 
       4      0.000      0.000      0.000      0.000 
       5      0.000      0.000      0.000      0.000 
       6      0.000      0.000      0.000      0.000 
       7      0.000      0.000      0.000      0.000 
       8      0.000      0.000      0.000      0.000 

Improper Coeffs 

       1     10.500      -1       2 
       2      0.000      -1       2 
       3      0.000      -1       2 

Atoms 

     1      1      1 -0.33890000    1.000  1.00000  0.00000
     2      1      2 0.51300000   -0.498  1.00000  0.00000
     3      1      3 -0.44670000   -1.187  1.00000  1.00741
     4      1      4 -0.55880000   -1.020  0.99842 -1.24656
     5      1      5 0.12630000    1.361  1.00000  1.03246
     6      1      6 0.12630000    1.370  1.89979 -0.49803
     7      1      7 0.12630000    1.370  0.10028 -0.49799
     8      1      8 0.45250000   -0.347  0.99753 -1.95219

Bonds 

     1      1      2      1
     2      2      3      2
     3      3      4      2
     4      4      5      1
     5      5      6      1
     6      6      7      1
     7      7      8      4

Angles 

     1      1      1      2      3
     2      2      1      2      4
     3      3      2      1      5
     4      4      2      1      6
     5      5      2      1      7
     6      6      2      4      8
     7      7      6      1      7
     8      8      5      1      6
     9      9      3      2      4
    10     10      5      1      7

Dihedrals

     1      1      5      1      2      3 
     2      2      8      4      2      1 
     3      3      8      4      2      3 
     4      4      7      1      2      3 
     5      5      5      1      2      4 
     6      6      6      1      2      3 
     7      7      6      1      2      4 
     8      8      7      1      2      4 

Impropers

     1      1      2      1      3      4 
     2      2      1      2      5      6 
     3      3      1      2      5      7 

