#C18_usat_amine

56 atoms
5 atom types

55 bonds
7 bond types

105 angles
10 angle types

148 dihedrals
12 dihedral types

35 impropers
2 improper types

-12.18561  37.81439  xlo xhi
-6.2104  43.7896  ylo yhi
-1.02699  48.97301  zlo zhi

Masses

1  12.011
2  12.011
3  14.007
4  1.008
5  1.008

Pair Coeffs

1  0.066  3.5
2  0.076  3.55
3  0.17  3.3
4  0.03  2.5
5  0.0  0.0

Bond Coeffs

1  268.0  1.529
2  317.0  1.51
3  549.0  1.34
4  382.0  1.448
5  340.0  1.09
6  340.0  1.08
7  434.0  1.01

Angle Coeffs

1  58.35  112.7
2  63.0  111.1
3  70.0  124.0
4  56.2  109.47
5  37.5  110.7
6  35.0  117.0
7  35.0  120.0
8  35.0  109.5
9  33.0  107.8
10  43.6  106.4

Dihedral Coeffs

1  1.3  -0.2  0.2  0.0
2  0.346  0.405  -0.904  0.0
3  0.0  14.0  0.0  0.0
4  2.392  -0.674  0.55  0.0
5  0.0  0.0  0.3  0.0
6  -0.19  -0.417  0.418  0.0
7  -1.013  -0.709  0.473  0.0
8  0.0  0.0  0.4  0.0
9  0.0  0.0  -0.372  0.0
10  0.0  0.0  0.366  0.0
11  0.0  0.0  0.318  0.0
12  0.0  -8.0  0.0  0.0

Improper Coeffs

1  0.0  -1.0  2.0
2  2.5  -1.0  2.0

Atoms # full

1  1  1  -0.2389   1   1   0
2  1  1  -0.1795  -0.519   1   0
3  1  1  -0.1786  -1.071   1   1.42412
4  1  1  -0.1794  -2.598   0.9982   1.42412
5  1  1  -0.1792  -3.144   0.9964   2.85091
6  1  1  -0.1803  -4.671   0.99641   2.85255
7  1  1  -0.1765  -5.217   0.99641   4.2787
8  1  1  -0.1446  -6.743   1.06208   4.27434
9  1  2  -0.1916  -7.289   1.06437   5.67051
10  1  2  -0.1966  -8.441   0.46637   6.00919
11  1  1  -0.1435  -8.99   0.46445   7.40384
12  1  1  -0.1749  -9.176  -0.96587   7.9049
13  1  1  -0.1804  -9.734  -0.97434   9.32562
14  1  1  -0.179  -9.924  -2.40255   9.83015
15  1  1  -0.178  -10.48  -2.40774   11.25195
16  1  1  -0.1793  -10.673  -3.83423   11.76009
17  1  1  -0.1812  -11.228  -3.84432   13.18251
18  1  1   0.088  -11.418  -5.27092   13.68809
19  1  3  -0.9254  -11.949  -5.25411   15.04512
20  1  4   0.0808   1.378   0.9987  -1.02699
21  1  4   0.0808   1.39   0.11255   0.50878
22  1  4   0.0808   1.391   1.88827   0.50627
23  1  4   0.0884  -0.88   0.11686  -0.53944
24  1  4   0.0884  -0.88   1.88327  -0.53952
25  1  4   0.0895  -0.704   1.88413   1.96068
26  1  4   0.0895  -0.702   0.11831   1.96159
27  1  4   0.0894  -2.966   0.11487   0.8881
28  1  4   0.0894  -2.968   1.88104   0.88841
29  1  4   0.0898  -2.774   1.88036   3.38622
30  1  4   0.0898  -2.774   0.11388   3.38612
31  1  4   0.0897  -5.04   0.11437   2.3156
32  1  4   0.0897  -5.037   1.8815   2.31797
33  1  4   0.092  -4.811   1.85938   4.82309
34  1  4   0.092  -4.878   0.09457   4.80435
35  1  4   0.0977  -7.143   0.21219   3.70722
36  1  4   0.0977  -7.067   1.98082   3.77185
37  1  4   0.1365  -6.709   1.5828   6.431
38  1  4   0.1355  -9.025  -0.04968   5.24987
39  1  4   0.0956  -9.952   0.98968   7.40288
40  1  4   0.0956  -8.325   1.00998   8.08438
41  1  4   0.0924  -8.216  -1.49757   7.88289
42  1  4   0.0924  -9.86  -1.50687   7.23768
43  1  4   0.0899  -10.694  -0.44454   9.34697
44  1  4   0.0899  -9.049  -0.43589   9.99168
45  1  4   0.09  -8.963  -2.93183   9.80621
46  1  4   0.09  -10.608  -2.94033   9.16286
47  1  4   0.0909  -11.439  -1.87652   11.27232
48  1  4   0.0909  -9.795  -1.86817   11.91688
49  1  4   0.0889  -9.712  -4.36499   11.73542
50  1  4   0.0889  -11.357  -4.37286   11.09279
51  1  4   0.0984  -12.186  -3.31065   13.20524
52  1  4   0.0984  -10.54  -3.3017   13.84362
53  1  4   0.0777  -10.463  -5.80696   13.67563
54  1  4   0.0777  -12.116  -5.8105   13.03794
55  1  5   0.3318  -11.295  -4.77336   15.66182
56  1  5   0.3318  -12.017  -6.2104   15.39066

Bonds

1  1  2  1
2  1  3  2
3  1  4  3
4  1  5  4
5  1  6  5
6  1  7  6
7  1  8  7
8  2  9  8
9  3  10  9
10  2  11  10
11  1  12  11
12  1  13  12
13  1  14  13
14  1  15  14
15  1  16  15
16  1  17  16
17  1  18  17
18  4  19  18
19  5  20  1
20  5  21  1
21  5  22  1
22  5  23  2
23  5  24  2
24  5  25  3
25  5  26  3
26  5  27  4
27  5  28  4
28  5  29  5
29  5  30  5
30  5  31  6
31  5  32  6
32  5  33  7
33  5  34  7
34  5  35  8
35  5  36  8
36  6  37  9
37  6  38  10
38  5  39  11
39  5  40  11
40  5  41  12
41  5  42  12
42  5  43  13
43  5  44  13
44  5  45  14
45  5  46  14
46  5  47  15
47  5  48  15
48  5  49  16
49  5  50  16
50  5  51  17
51  5  52  17
52  5  53  18
53  5  54  18
54  7  55  19
55  7  56  19

Angles

1  1  1  2  3
2  1  2  3  4
3  1  3  4  5
4  1  4  5  6
5  1  5  6  7
6  1  6  7  8
7  2  7  8  9
8  3  8  9  10
9  3  9  10  11
10  2  10  11  12
11  1  11  12  13
12  1  12  13  14
13  1  13  14  15
14  1  14  15  16
15  1  15  16  17
16  1  16  17  18
17  4  17  18  19
18  5  2  1  20
19  5  2  1  21
20  5  2  1  22
21  5  1  2  23
22  5  1  2  24
23  5  2  3  25
24  5  2  3  26
25  5  3  4  27
26  5  3  4  28
27  5  4  5  29
28  5  4  5  30
29  5  5  6  31
30  5  5  6  32
31  5  6  7  33
32  5  6  7  34
33  5  7  8  35
34  5  7  8  36
35  6  8  9  37
36  7  9  10  38
37  8  10  11  39
38  8  10  11  40
39  5  11  12  41
40  5  11  12  42
41  5  12  13  43
42  5  12  13  44
43  5  13  14  45
44  5  13  14  46
45  5  14  15  47
46  5  14  15  48
47  5  15  16  49
48  5  15  16  50
49  5  16  17  51
50  5  16  17  52
51  5  17  18  53
52  5  17  18  54
53  8  18  19  55
54  8  18  19  56
55  9  47  15  48
56  6  11  10  38
57  5  12  11  40
58  9  27  4  28
59  9  41  12  42
60  8  19  18  54
61  5  17  16  50
62  9  20  1  21
63  5  5  4  27
64  5  7  6  32
65  5  7  6  31
66  5  6  5  30
67  5  5  4  28
68  9  33  7  34
69  9  39  11  40
70  5  8  7  33
71  5  18  17  51
72  5  12  11  39
73  5  15  14  46
74  9  45  14  46
75  9  20  1  22
76  5  13  12  42
77  9  29  5  30
78  9  51  17  52
79  8  9  8  36
80  9  35  8  36
81  5  16  15  47
82  9  49  16  50
83  5  4  3  25
84  5  18  17  52
85  5  4  3  26
86  5  15  14  45
87  5  8  7  34
88  9  53  18  54
89  9  25  3  26
90  5  16  15  48
91  5  14  13  43
92  9  43  13  44
93  9  31  6  32
94  10  55  19  56
95  5  3  2  23
96  8  19  18  53
97  8  9  8  35
98  7  10  9  37
99  5  17  16  49
100  9  23  2  24
101  9  21  1  22
102  5  3  2  24
103  5  13  12  41
104  5  6  5  29
105  5  14  13  44

Dihedrals

1  1  4  3  2  1
2  1  5  4  3  2
3  1  6  5  4  3
4  1  7  6  5  4
5  1  8  7  6  5
6  1  9  8  7  6
7  2  10  9  8  7
8  3  11  10  9  8
9  2  12  11  10  9
10  1  13  12  11  10
11  1  14  13  12  11
12  1  15  14  13  12
13  1  16  15  14  13
14  1  17  16  15  14
15  1  18  17  16  15
16  4  19  18  17  16
17  5  20  1  2  3
18  6  55  19  18  17
19  5  50  16  15  48
20  7  51  17  18  19
21  3  38  10  9  8
22  8  56  19  18  54
23  5  54  18  17  16
24  5  25  3  4  5
25  5  28  4  3  2
26  5  29  5  4  28
27  5  30  5  4  27
28  5  43  13  12  41
29  5  47  15  14  13
30  5  50  16  15  14
31  9  35  8  9  10
32  5  51  17  16  15
33  5  23  2  1  21
34  5  48  15  16  17
35  5  24  2  1  20
36  5  50  16  17  18
37  5  47  15  14  45
38  5  26  3  2  1
39  5  33  7  6  31
40  5  23  2  3  4
41  5  32  6  7  8
42  5  27  4  3  25
43  5  32  6  5  30
44  5  51  17  16  50
45  5  52  17  16  49
46  5  35  8  7  33
47  5  44  13  12  41
48  5  43  13  12  42
49  3  37  9  10  11
50  5  45  14  13  44
51  5  54  18  17  52
52  5  49  16  15  14
53  5  49  16  17  18
54  9  36  8  9  10
55  5  42  12  11  40
56  5  30  5  4  3
57  10  34  7  8  9
58  5  22  1  2  3
59  5  33  7  6  5
60  5  51  17  16  49
61  5  40  11  12  13
62  5  47  15  16  17
63  5  24  2  1  22
64  5  46  14  13  43
65  11  37  9  8  35
66  5  25  3  2  23
67  5  54  18  17  51
68  5  53  18  17  52
69  11  39  11  10  38
70  5  44  13  14  15
71  11  40  11  10  38
72  5  52  17  16  15
73  5  21  1  2  3
74  5  27  4  5  6
75  5  36  8  7  33
76  5  35  8  7  34
77  8  56  19  18  53
78  10  41  12  11  10
79  8  55  19  18  54
80  9  39  11  10  9
81  5  42  12  11  39
82  5  41  12  11  40
83  5  48  15  14  46
84  5  48  15  14  13
85  5  34  7  6  32
86  5  41  12  11  39
87  5  45  14  15  16
88  5  24  2  3  4
89  5  28  4  3  25
90  5  27  4  3  26
91  5  28  4  5  6
92  5  30  5  6  7
93  5  39  11  12  13
94  5  24  2  1  21
95  5  23  2  1  22
96  5  31  6  7  8
97  5  34  7  6  5
98  5  27  4  3  2
99  5  32  6  5  4
100  5  29  5  6  7
101  5  45  14  13  43
102  8  55  19  18  53
103  5  53  18  17  16
104  12  37  9  8  7
105  3  38  10  9  37
106  5  35  8  7  6
107  5  26  3  2  24
108  5  31  6  5  29
109  10  42  12  11  10
110  5  43  13  12  11
111  5  30  5  4  28
112  5  42  12  13  14
113  11  37  9  8  36
114  5  36  8  7  6
115  5  29  5  4  27
116  5  48  15  14  45
117  5  47  15  14  46
118  5  32  6  5  29
119  5  31  6  5  30
120  10  33  7  8  9
121  5  53  18  17  51
122  5  26  3  4  5
123  7  52  17  18  19
124  5  26  3  2  23
125  5  25  3  2  24
126  5  49  16  15  47
127  5  36  8  7  34
128  5  29  5  4  3
129  5  44  13  12  42
130  6  56  19  18  17
131  5  23  2  1  20
132  5  45  14  13  12
133  9  40  11  10  9
134  5  25  3  2  1
135  5  34  7  6  31
136  5  33  7  6  32
137  5  41  12  13  14
138  5  28  4  3  26
139  5  44  13  12  11
140  5  52  17  16  50
141  5  31  6  5  4
142  5  43  13  14  15
143  5  46  14  13  12
144  5  46  14  15  16
145  12  38  10  11  12
146  5  46  14  13  44
147  5  50  16  15  47
148  5  49  16  15  48

Impropers

1  1  1  2  20  21
2  1  1  2  20  22
3  1  2  1  3  23
4  1  2  1  3  24
5  1  3  25  2  4
6  1  3  26  4  2
7  1  4  27  5  3
8  1  4  3  28  5
9  1  5  4  29  6
10  1  5  4  30  6
11  1  6  7  5  31
12  1  6  5  7  32
13  1  7  33  6  8
14  1  7  34  6  8
15  1  8  9  35  7
16  1  8  9  36  7
17  2  9  10  37  8
18  2  10  9  11  38
19  1  11  10  12  39
20  1  11  10  12  40
21  1  12  41  11  13
22  1  12  42  11  13
23  1  13  43  12  14
24  1  13  12  44  14
25  1  14  13  45  15
26  1  14  13  46  15
27  1  15  16  47  14
28  1  15  16  14  48
29  1  16  49  17  15
30  1  16  17  50  15
31  1  17  18  51  16
32  1  17  18  52  16
33  1  18  17  19  53
34  1  18  17  19  54
35  1  19  18  55  56
