LAMMPS data file Created by LigParGen - (Written by Leela S. Dodda)

      56 atoms
      55 bonds
     105 angles
     148 dihedrals
      35 impropers
 
      56 atom types
      55 bond types
     105 angle types
     148 dihedral types
      35 improper types
 
  -12.185610    37.814390 xlo xhi
   -6.210400    43.789600 ylo yhi
   -1.026990    48.973010 zlo zhi

Masses

       1     12.011  
       2     12.011  
       3     12.011  
       4     12.011  
       5     12.011  
       6     12.011  
       7     12.011  
       8     12.011  
       9     12.011  
      10     12.011  
      11     12.011  
      12     12.011  
      13     12.011  
      14     12.011  
      15     12.011  
      16     12.011  
      17     12.011  
      18     12.011  
      19     14.007  
      20      1.008  
      21      1.008  
      22      1.008  
      23      1.008  
      24      1.008  
      25      1.008  
      26      1.008  
      27      1.008  
      28      1.008  
      29      1.008  
      30      1.008  
      31      1.008  
      32      1.008  
      33      1.008  
      34      1.008  
      35      1.008  
      36      1.008  
      37      1.008  
      38      1.008  
      39      1.008  
      40      1.008  
      41      1.008  
      42      1.008  
      43      1.008  
      44      1.008  
      45      1.008  
      46      1.008  
      47      1.008  
      48      1.008  
      49      1.008  
      50      1.008  
      51      1.008  
      52      1.008  
      53      1.008  
      54      1.008  
      55      1.008  
      56      1.008  

Pair Coeffs 

       1      0.066  3.5000000 
       2      0.066  3.5000000 
       3      0.066  3.5000000 
       4      0.066  3.5000000 
       5      0.066  3.5000000 
       6      0.066  3.5000000 
       7      0.066  3.5000000 
       8      0.066  3.5000000 
       9      0.076  3.5500000 
      10      0.076  3.5500000 
      11      0.066  3.5000000 
      12      0.066  3.5000000 
      13      0.066  3.5000000 
      14      0.066  3.5000000 
      15      0.066  3.5000000 
      16      0.066  3.5000000 
      17      0.066  3.5000000 
      18      0.066  3.5000000 
      19      0.170  3.3000000 
      20      0.030  2.5000000 
      21      0.030  2.5000000 
      22      0.030  2.5000000 
      23      0.030  2.5000000 
      24      0.030  2.5000000 
      25      0.030  2.5000000 
      26      0.030  2.5000000 
      27      0.030  2.5000000 
      28      0.030  2.5000000 
      29      0.030  2.5000000 
      30      0.030  2.5000000 
      31      0.030  2.5000000 
      32      0.030  2.5000000 
      33      0.030  2.5000000 
      34      0.030  2.5000000 
      35      0.030  2.5000000 
      36      0.030  2.5000000 
      37      0.030  2.5000000 
      38      0.030  2.5000000 
      39      0.030  2.5000000 
      40      0.030  2.5000000 
      41      0.030  2.5000000 
      42      0.030  2.5000000 
      43      0.030  2.5000000 
      44      0.030  2.5000000 
      45      0.030  2.5000000 
      46      0.030  2.5000000 
      47      0.030  2.5000000 
      48      0.030  2.5000000 
      49      0.030  2.5000000 
      50      0.030  2.5000000 
      51      0.030  2.5000000 
      52      0.030  2.5000000 
      53      0.030  2.5000000 
      54      0.030  2.5000000 
      55      0.000  0.0000000 
      56      0.000  0.0000000 

Bond Coeffs 

       1   268.0000     1.5290 
       2   268.0000     1.5290 
       3   268.0000     1.5290 
       4   268.0000     1.5290 
       5   268.0000     1.5290 
       6   268.0000     1.5290 
       7   268.0000     1.5290 
       8   317.0000     1.5100 
       9   549.0000     1.3400 
      10   317.0000     1.5100 
      11   268.0000     1.5290 
      12   268.0000     1.5290 
      13   268.0000     1.5290 
      14   268.0000     1.5290 
      15   268.0000     1.5290 
      16   268.0000     1.5290 
      17   268.0000     1.5290 
      18   382.0000     1.4480 
      19   340.0000     1.0900 
      20   340.0000     1.0900 
      21   340.0000     1.0900 
      22   340.0000     1.0900 
      23   340.0000     1.0900 
      24   340.0000     1.0900 
      25   340.0000     1.0900 
      26   340.0000     1.0900 
      27   340.0000     1.0900 
      28   340.0000     1.0900 
      29   340.0000     1.0900 
      30   340.0000     1.0900 
      31   340.0000     1.0900 
      32   340.0000     1.0900 
      33   340.0000     1.0900 
      34   340.0000     1.0900 
      35   340.0000     1.0900 
      36   340.0000     1.0800 
      37   340.0000     1.0800 
      38   340.0000     1.0900 
      39   340.0000     1.0900 
      40   340.0000     1.0900 
      41   340.0000     1.0900 
      42   340.0000     1.0900 
      43   340.0000     1.0900 
      44   340.0000     1.0900 
      45   340.0000     1.0900 
      46   340.0000     1.0900 
      47   340.0000     1.0900 
      48   340.0000     1.0900 
      49   340.0000     1.0900 
      50   340.0000     1.0900 
      51   340.0000     1.0900 
      52   340.0000     1.0900 
      53   340.0000     1.0900 
      54   434.0000     1.0100 
      55   434.0000     1.0100 

Angle Coeffs 

       1     58.350    112.700
       2     58.350    112.700
       3     58.350    112.700
       4     58.350    112.700
       5     58.350    112.700
       6     58.350    112.700
       7     63.000    111.100
       8     70.000    124.000
       9     70.000    124.000
      10     63.000    111.100
      11     58.350    112.700
      12     58.350    112.700
      13     58.350    112.700
      14     58.350    112.700
      15     58.350    112.700
      16     58.350    112.700
      17     56.200    109.470
      18     37.500    110.700
      19     37.500    110.700
      20     37.500    110.700
      21     37.500    110.700
      22     37.500    110.700
      23     37.500    110.700
      24     37.500    110.700
      25     37.500    110.700
      26     37.500    110.700
      27     37.500    110.700
      28     37.500    110.700
      29     37.500    110.700
      30     37.500    110.700
      31     37.500    110.700
      32     37.500    110.700
      33     37.500    110.700
      34     37.500    110.700
      35     35.000    117.000
      36     35.000    120.000
      37     35.000    109.500
      38     35.000    109.500
      39     37.500    110.700
      40     37.500    110.700
      41     37.500    110.700
      42     37.500    110.700
      43     37.500    110.700
      44     37.500    110.700
      45     37.500    110.700
      46     37.500    110.700
      47     37.500    110.700
      48     37.500    110.700
      49     37.500    110.700
      50     37.500    110.700
      51     37.500    110.700
      52     37.500    110.700
      53     35.000    109.500
      54     35.000    109.500
      55     33.000    107.800
      56     35.000    117.000
      57     37.500    110.700
      58     33.000    107.800
      59     33.000    107.800
      60     35.000    109.500
      61     37.500    110.700
      62     33.000    107.800
      63     37.500    110.700
      64     37.500    110.700
      65     37.500    110.700
      66     37.500    110.700
      67     37.500    110.700
      68     33.000    107.800
      69     33.000    107.800
      70     37.500    110.700
      71     37.500    110.700
      72     37.500    110.700
      73     37.500    110.700
      74     33.000    107.800
      75     33.000    107.800
      76     37.500    110.700
      77     33.000    107.800
      78     33.000    107.800
      79     35.000    109.500
      80     33.000    107.800
      81     37.500    110.700
      82     33.000    107.800
      83     37.500    110.700
      84     37.500    110.700
      85     37.500    110.700
      86     37.500    110.700
      87     37.500    110.700
      88     33.000    107.800
      89     33.000    107.800
      90     37.500    110.700
      91     37.500    110.700
      92     33.000    107.800
      93     33.000    107.800
      94     43.600    106.400
      95     37.500    110.700
      96     35.000    109.500
      97     35.000    109.500
      98     35.000    120.000
      99     37.500    110.700
     100     33.000    107.800
     101     33.000    107.800
     102     37.500    110.700
     103     37.500    110.700
     104     37.500    110.700
     105     37.500    110.700

Dihedral Coeffs  

       1      1.300     -0.200      0.200      0.000 
       2      1.300     -0.200      0.200      0.000 
       3      1.300     -0.200      0.200      0.000 
       4      1.300     -0.200      0.200      0.000 
       5      1.300     -0.200      0.200      0.000 
       6      1.300     -0.200      0.200      0.000 
       7      0.346      0.405     -0.904      0.000 
       8      0.000     14.000      0.000      0.000 
       9      0.346      0.405     -0.904      0.000 
      10      1.300     -0.200      0.200      0.000 
      11      1.300     -0.200      0.200      0.000 
      12      1.300     -0.200      0.200      0.000 
      13      1.300     -0.200      0.200      0.000 
      14      1.300     -0.200      0.200      0.000 
      15      1.300     -0.200      0.200      0.000 
      16      2.392     -0.674      0.550      0.000 
      17      0.000      0.000      0.300      0.000 
      18     -0.190     -0.417      0.418      0.000 
      19      0.000      0.000      0.300      0.000 
      20     -1.013     -0.709      0.473      0.000 
      21      0.000     14.000      0.000      0.000 
      22      0.000      0.000      0.400      0.000 
      23      0.000      0.000      0.300      0.000 
      24      0.000      0.000      0.300      0.000 
      25      0.000      0.000      0.300      0.000 
      26      0.000      0.000      0.300      0.000 
      27      0.000      0.000      0.300      0.000 
      28      0.000      0.000      0.300      0.000 
      29      0.000      0.000      0.300      0.000 
      30      0.000      0.000      0.300      0.000 
      31      0.000      0.000     -0.372      0.000 
      32      0.000      0.000      0.300      0.000 
      33      0.000      0.000      0.300      0.000 
      34      0.000      0.000      0.300      0.000 
      35      0.000      0.000      0.300      0.000 
      36      0.000      0.000      0.300      0.000 
      37      0.000      0.000      0.300      0.000 
      38      0.000      0.000      0.300      0.000 
      39      0.000      0.000      0.300      0.000 
      40      0.000      0.000      0.300      0.000 
      41      0.000      0.000      0.300      0.000 
      42      0.000      0.000      0.300      0.000 
      43      0.000      0.000      0.300      0.000 
      44      0.000      0.000      0.300      0.000 
      45      0.000      0.000      0.300      0.000 
      46      0.000      0.000      0.300      0.000 
      47      0.000      0.000      0.300      0.000 
      48      0.000      0.000      0.300      0.000 
      49      0.000     14.000      0.000      0.000 
      50      0.000      0.000      0.300      0.000 
      51      0.000      0.000      0.300      0.000 
      52      0.000      0.000      0.300      0.000 
      53      0.000      0.000      0.300      0.000 
      54      0.000      0.000     -0.372      0.000 
      55      0.000      0.000      0.300      0.000 
      56      0.000      0.000      0.300      0.000 
      57      0.000      0.000      0.366      0.000 
      58      0.000      0.000      0.300      0.000 
      59      0.000      0.000      0.300      0.000 
      60      0.000      0.000      0.300      0.000 
      61      0.000      0.000      0.300      0.000 
      62      0.000      0.000      0.300      0.000 
      63      0.000      0.000      0.300      0.000 
      64      0.000      0.000      0.300      0.000 
      65      0.000      0.000      0.318      0.000 
      66      0.000      0.000      0.300      0.000 
      67      0.000      0.000      0.300      0.000 
      68      0.000      0.000      0.300      0.000 
      69      0.000      0.000      0.318      0.000 
      70      0.000      0.000      0.300      0.000 
      71      0.000      0.000      0.318      0.000 
      72      0.000      0.000      0.300      0.000 
      73      0.000      0.000      0.300      0.000 
      74      0.000      0.000      0.300      0.000 
      75      0.000      0.000      0.300      0.000 
      76      0.000      0.000      0.300      0.000 
      77      0.000      0.000      0.400      0.000 
      78      0.000      0.000      0.366      0.000 
      79      0.000      0.000      0.400      0.000 
      80      0.000      0.000     -0.372      0.000 
      81      0.000      0.000      0.300      0.000 
      82      0.000      0.000      0.300      0.000 
      83      0.000      0.000      0.300      0.000 
      84      0.000      0.000      0.300      0.000 
      85      0.000      0.000      0.300      0.000 
      86      0.000      0.000      0.300      0.000 
      87      0.000      0.000      0.300      0.000 
      88      0.000      0.000      0.300      0.000 
      89      0.000      0.000      0.300      0.000 
      90      0.000      0.000      0.300      0.000 
      91      0.000      0.000      0.300      0.000 
      92      0.000      0.000      0.300      0.000 
      93      0.000      0.000      0.300      0.000 
      94      0.000      0.000      0.300      0.000 
      95      0.000      0.000      0.300      0.000 
      96      0.000      0.000      0.300      0.000 
      97      0.000      0.000      0.300      0.000 
      98      0.000      0.000      0.300      0.000 
      99      0.000      0.000      0.300      0.000 
     100      0.000      0.000      0.300      0.000 
     101      0.000      0.000      0.300      0.000 
     102      0.000      0.000      0.400      0.000 
     103      0.000      0.000      0.300      0.000 
     104      0.000     -8.000      0.000      0.000 
     105      0.000     14.000      0.000      0.000 
     106      0.000      0.000      0.300      0.000 
     107      0.000      0.000      0.300      0.000 
     108      0.000      0.000      0.300      0.000 
     109      0.000      0.000      0.366      0.000 
     110      0.000      0.000      0.300      0.000 
     111      0.000      0.000      0.300      0.000 
     112      0.000      0.000      0.300      0.000 
     113      0.000      0.000      0.318      0.000 
     114      0.000      0.000      0.300      0.000 
     115      0.000      0.000      0.300      0.000 
     116      0.000      0.000      0.300      0.000 
     117      0.000      0.000      0.300      0.000 
     118      0.000      0.000      0.300      0.000 
     119      0.000      0.000      0.300      0.000 
     120      0.000      0.000      0.366      0.000 
     121      0.000      0.000      0.300      0.000 
     122      0.000      0.000      0.300      0.000 
     123     -1.013     -0.709      0.473      0.000 
     124      0.000      0.000      0.300      0.000 
     125      0.000      0.000      0.300      0.000 
     126      0.000      0.000      0.300      0.000 
     127      0.000      0.000      0.300      0.000 
     128      0.000      0.000      0.300      0.000 
     129      0.000      0.000      0.300      0.000 
     130     -0.190     -0.417      0.418      0.000 
     131      0.000      0.000      0.300      0.000 
     132      0.000      0.000      0.300      0.000 
     133      0.000      0.000     -0.372      0.000 
     134      0.000      0.000      0.300      0.000 
     135      0.000      0.000      0.300      0.000 
     136      0.000      0.000      0.300      0.000 
     137      0.000      0.000      0.300      0.000 
     138      0.000      0.000      0.300      0.000 
     139      0.000      0.000      0.300      0.000 
     140      0.000      0.000      0.300      0.000 
     141      0.000      0.000      0.300      0.000 
     142      0.000      0.000      0.300      0.000 
     143      0.000      0.000      0.300      0.000 
     144      0.000      0.000      0.300      0.000 
     145      0.000     -8.000      0.000      0.000 
     146      0.000      0.000      0.300      0.000 
     147      0.000      0.000      0.300      0.000 
     148      0.000      0.000      0.300      0.000 

Improper Coeffs 

       1      0.000      -1       2 
       2      0.000      -1       2 
       3      0.000      -1       2 
       4      0.000      -1       2 
       5      0.000      -1       2 
       6      0.000      -1       2 
       7      0.000      -1       2 
       8      0.000      -1       2 
       9      0.000      -1       2 
      10      0.000      -1       2 
      11      0.000      -1       2 
      12      0.000      -1       2 
      13      0.000      -1       2 
      14      0.000      -1       2 
      15      0.000      -1       2 
      16      0.000      -1       2 
      17      2.500      -1       2 
      18      2.500      -1       2 
      19      0.000      -1       2 
      20      0.000      -1       2 
      21      0.000      -1       2 
      22      0.000      -1       2 
      23      0.000      -1       2 
      24      0.000      -1       2 
      25      0.000      -1       2 
      26      0.000      -1       2 
      27      0.000      -1       2 
      28      0.000      -1       2 
      29      0.000      -1       2 
      30      0.000      -1       2 
      31      0.000      -1       2 
      32      0.000      -1       2 
      33      0.000      -1       2 
      34      0.000      -1       2 
      35      0.000      -1       2 

Atoms 

     1      1      1 -0.23890000    1.000  1.00000  0.00000
     2      1      2 -0.17950000   -0.519  1.00000  0.00000
     3      1      3 -0.17860000   -1.071  1.00000  1.42412
     4      1      4 -0.17940000   -2.598  0.99820  1.42412
     5      1      5 -0.17920000   -3.144  0.99640  2.85091
     6      1      6 -0.18030000   -4.671  0.99641  2.85255
     7      1      7 -0.17650000   -5.217  0.99641  4.27870
     8      1      8 -0.14460000   -6.743  1.06208  4.27434
     9      1      9 -0.19160000   -7.289  1.06437  5.67051
    10      1     10 -0.19660000   -8.441  0.46637  6.00919
    11      1     11 -0.14350000   -8.990  0.46445  7.40384
    12      1     12 -0.17490000   -9.176 -0.96587  7.90490
    13      1     13 -0.18040000   -9.734 -0.97434  9.32562
    14      1     14 -0.17900000   -9.924 -2.40255  9.83015
    15      1     15 -0.17800000  -10.480 -2.40774 11.25195
    16      1     16 -0.17930000  -10.673 -3.83423 11.76009
    17      1     17 -0.18120000  -11.228 -3.84432 13.18251
    18      1     18 0.08800000  -11.418 -5.27092 13.68809
    19      1     19 -0.92540000  -11.949 -5.25411 15.04512
    20      1     20 0.08080000    1.378  0.99870 -1.02699
    21      1     21 0.08080000    1.390  0.11255  0.50878
    22      1     22 0.08080000    1.391  1.88827  0.50627
    23      1     23 0.08840000   -0.880  0.11686 -0.53944
    24      1     24 0.08840000   -0.880  1.88327 -0.53952
    25      1     25 0.08950000   -0.704  1.88413  1.96068
    26      1     26 0.08950000   -0.702  0.11831  1.96159
    27      1     27 0.08940000   -2.966  0.11487  0.88810
    28      1     28 0.08940000   -2.968  1.88104  0.88841
    29      1     29 0.08980000   -2.774  1.88036  3.38622
    30      1     30 0.08980000   -2.774  0.11388  3.38612
    31      1     31 0.08970000   -5.040  0.11437  2.31560
    32      1     32 0.08970000   -5.037  1.88150  2.31797
    33      1     33 0.09200000   -4.811  1.85938  4.82309
    34      1     34 0.09200000   -4.878  0.09457  4.80435
    35      1     35 0.09770000   -7.143  0.21219  3.70722
    36      1     36 0.09770000   -7.067  1.98082  3.77185
    37      1     37 0.13650000   -6.709  1.58280  6.43100
    38      1     38 0.13550000   -9.025 -0.04968  5.24987
    39      1     39 0.09560000   -9.952  0.98968  7.40288
    40      1     40 0.09560000   -8.325  1.00998  8.08438
    41      1     41 0.09240000   -8.216 -1.49757  7.88289
    42      1     42 0.09240000   -9.860 -1.50687  7.23768
    43      1     43 0.08990000  -10.694 -0.44454  9.34697
    44      1     44 0.08990000   -9.049 -0.43589  9.99168
    45      1     45 0.09000000   -8.963 -2.93183  9.80621
    46      1     46 0.09000000  -10.608 -2.94033  9.16286
    47      1     47 0.09090000  -11.439 -1.87652 11.27232
    48      1     48 0.09090000   -9.795 -1.86817 11.91688
    49      1     49 0.08890000   -9.712 -4.36499 11.73542
    50      1     50 0.08890000  -11.357 -4.37286 11.09279
    51      1     51 0.09840000  -12.186 -3.31065 13.20524
    52      1     52 0.09840000  -10.540 -3.30170 13.84362
    53      1     53 0.07770000  -10.463 -5.80696 13.67563
    54      1     54 0.07770000  -12.116 -5.81050 13.03794
    55      1     55 0.33180000  -11.295 -4.77336 15.66182
    56      1     56 0.33180000  -12.017 -6.21040 15.39066

Bonds 

     1      1      2      1
     2      2      3      2
     3      3      4      3
     4      4      5      4
     5      5      6      5
     6      6      7      6
     7      7      8      7
     8      8      9      8
     9      9     10      9
    10     10     11     10
    11     11     12     11
    12     12     13     12
    13     13     14     13
    14     14     15     14
    15     15     16     15
    16     16     17     16
    17     17     18     17
    18     18     19     18
    19     19     20      1
    20     20     21      1
    21     21     22      1
    22     22     23      2
    23     23     24      2
    24     24     25      3
    25     25     26      3
    26     26     27      4
    27     27     28      4
    28     28     29      5
    29     29     30      5
    30     30     31      6
    31     31     32      6
    32     32     33      7
    33     33     34      7
    34     34     35      8
    35     35     36      8
    36     36     37      9
    37     37     38     10
    38     38     39     11
    39     39     40     11
    40     40     41     12
    41     41     42     12
    42     42     43     13
    43     43     44     13
    44     44     45     14
    45     45     46     14
    46     46     47     15
    47     47     48     15
    48     48     49     16
    49     49     50     16
    50     50     51     17
    51     51     52     17
    52     52     53     18
    53     53     54     18
    54     54     55     19
    55     55     56     19

Angles 

     1      1      1      2      3
     2      2      2      3      4
     3      3      3      4      5
     4      4      4      5      6
     5      5      5      6      7
     6      6      6      7      8
     7      7      7      8      9
     8      8      8      9     10
     9      9      9     10     11
    10     10     10     11     12
    11     11     11     12     13
    12     12     12     13     14
    13     13     13     14     15
    14     14     14     15     16
    15     15     15     16     17
    16     16     16     17     18
    17     17     17     18     19
    18     18      2      1     20
    19     19      2      1     21
    20     20      2      1     22
    21     21      1      2     23
    22     22      1      2     24
    23     23      2      3     25
    24     24      2      3     26
    25     25      3      4     27
    26     26      3      4     28
    27     27      4      5     29
    28     28      4      5     30
    29     29      5      6     31
    30     30      5      6     32
    31     31      6      7     33
    32     32      6      7     34
    33     33      7      8     35
    34     34      7      8     36
    35     35      8      9     37
    36     36      9     10     38
    37     37     10     11     39
    38     38     10     11     40
    39     39     11     12     41
    40     40     11     12     42
    41     41     12     13     43
    42     42     12     13     44
    43     43     13     14     45
    44     44     13     14     46
    45     45     14     15     47
    46     46     14     15     48
    47     47     15     16     49
    48     48     15     16     50
    49     49     16     17     51
    50     50     16     17     52
    51     51     17     18     53
    52     52     17     18     54
    53     53     18     19     55
    54     54     18     19     56
    55     55     47     15     48
    56     56     11     10     38
    57     57     12     11     40
    58     58     27      4     28
    59     59     41     12     42
    60     60     19     18     54
    61     61     17     16     50
    62     62     20      1     21
    63     63      5      4     27
    64     64      7      6     32
    65     65      7      6     31
    66     66      6      5     30
    67     67      5      4     28
    68     68     33      7     34
    69     69     39     11     40
    70     70      8      7     33
    71     71     18     17     51
    72     72     12     11     39
    73     73     15     14     46
    74     74     45     14     46
    75     75     20      1     22
    76     76     13     12     42
    77     77     29      5     30
    78     78     51     17     52
    79     79      9      8     36
    80     80     35      8     36
    81     81     16     15     47
    82     82     49     16     50
    83     83      4      3     25
    84     84     18     17     52
    85     85      4      3     26
    86     86     15     14     45
    87     87      8      7     34
    88     88     53     18     54
    89     89     25      3     26
    90     90     16     15     48
    91     91     14     13     43
    92     92     43     13     44
    93     93     31      6     32
    94     94     55     19     56
    95     95      3      2     23
    96     96     19     18     53
    97     97      9      8     35
    98     98     10      9     37
    99     99     17     16     49
   100    100     23      2     24
   101    101     21      1     22
   102    102      3      2     24
   103    103     13     12     41
   104    104      6      5     29
   105    105     14     13     44

Dihedrals

     1      1      4      3      2      1 
     2      2      5      4      3      2 
     3      3      6      5      4      3 
     4      4      7      6      5      4 
     5      5      8      7      6      5 
     6      6      9      8      7      6 
     7      7     10      9      8      7 
     8      8     11     10      9      8 
     9      9     12     11     10      9 
    10     10     13     12     11     10 
    11     11     14     13     12     11 
    12     12     15     14     13     12 
    13     13     16     15     14     13 
    14     14     17     16     15     14 
    15     15     18     17     16     15 
    16     16     19     18     17     16 
    17     17     20      1      2      3 
    18     18     55     19     18     17 
    19     19     50     16     15     48 
    20     20     51     17     18     19 
    21     21     38     10      9      8 
    22     22     56     19     18     54 
    23     23     54     18     17     16 
    24     24     25      3      4      5 
    25     25     28      4      3      2 
    26     26     29      5      4     28 
    27     27     30      5      4     27 
    28     28     43     13     12     41 
    29     29     47     15     14     13 
    30     30     50     16     15     14 
    31     31     35      8      9     10 
    32     32     51     17     16     15 
    33     33     23      2      1     21 
    34     34     48     15     16     17 
    35     35     24      2      1     20 
    36     36     50     16     17     18 
    37     37     47     15     14     45 
    38     38     26      3      2      1 
    39     39     33      7      6     31 
    40     40     23      2      3      4 
    41     41     32      6      7      8 
    42     42     27      4      3     25 
    43     43     32      6      5     30 
    44     44     51     17     16     50 
    45     45     52     17     16     49 
    46     46     35      8      7     33 
    47     47     44     13     12     41 
    48     48     43     13     12     42 
    49     49     37      9     10     11 
    50     50     45     14     13     44 
    51     51     54     18     17     52 
    52     52     49     16     15     14 
    53     53     49     16     17     18 
    54     54     36      8      9     10 
    55     55     42     12     11     40 
    56     56     30      5      4      3 
    57     57     34      7      8      9 
    58     58     22      1      2      3 
    59     59     33      7      6      5 
    60     60     51     17     16     49 
    61     61     40     11     12     13 
    62     62     47     15     16     17 
    63     63     24      2      1     22 
    64     64     46     14     13     43 
    65     65     37      9      8     35 
    66     66     25      3      2     23 
    67     67     54     18     17     51 
    68     68     53     18     17     52 
    69     69     39     11     10     38 
    70     70     44     13     14     15 
    71     71     40     11     10     38 
    72     72     52     17     16     15 
    73     73     21      1      2      3 
    74     74     27      4      5      6 
    75     75     36      8      7     33 
    76     76     35      8      7     34 
    77     77     56     19     18     53 
    78     78     41     12     11     10 
    79     79     55     19     18     54 
    80     80     39     11     10      9 
    81     81     42     12     11     39 
    82     82     41     12     11     40 
    83     83     48     15     14     46 
    84     84     48     15     14     13 