#slvnt_toluene

15 atoms
4 atom types

15 bonds
4 bond types

24 angles
5 angle types

30 dihedrals
2 dihedral types

8 impropers
2 improper types

-4.38696  45.61304  xlo xhi
0  50.07076  ylo yhi
-2.17345  47.82655  zlo zhi

Masses

1  12.011
2  12.011
3  1.008
4  1.008

Pair Coeffs

1  0.066  3.5
2  0.07  3.55
3  0.03  2.5
4  0.03  2.42

Bond Coeffs

1  317.0  1.51
2  469.0  1.4
3  340.0  1.09
4  367.0  1.08

Angle Coeffs

1  70.0  120.0
2  63.0  120.0
3  35.0  109.5
4  35.0  120.0
5  33.0  107.8

Dihedral Coeffs

1  0.0  7.25  0.0  0.0
2  0.0  0.0  0.0  0.0

Improper Coeffs

1  2.5  -1.0  2.0
2  0.0  -1.0  2.0

Atoms # full

1  1  1  -0.1984   1   1   0
2  1  2  -0.0803  -0.5   1   0
3  1  2  -0.1378  -1.22   1   1.20066
4  1  2  -0.1341  -2.616   0.99848   1.18605
5  1  2  -0.143  -3.3   0.99695  -0.02798
6  1  2  -0.1341  -2.589   0.99694  -1.2263
7  1  2  -0.1378  -1.198   0.99846  -1.21451
8  1  3   0.0933   1.401   1.07883   1.01585
9  1  3   0.0933   1.378   1.85192  -0.57448
10  1  3   0.0933   1.375   0.07076  -0.44088
11  1  4   0.1373  -0.699   1.00237   2.15515
12  1  4   0.137  -3.167   0.9973   2.12254
13  1  4   0.1368  -4.387   0.99457  -0.03935
14  1  4   0.137  -3.122   0.99455  -2.17345
15  1  4   0.1373  -0.655   0.99727  -2.15673

Bonds

1  1  2  1
2  2  3  2
3  2  4  3
4  2  5  4
5  2  6  5
6  2  7  2
7  3  8  1
8  3  9  1
9  3  10  1
10  4  11  3
11  4  12  4
12  4  13  5
13  4  14  6
14  4  15  7
15  2  7  6

Angles

1  1  1  2  3
2  2  2  3  4
3  2  3  4  5
4  2  4  5  6
5  1  1  2  7
6  3  2  1  8
7  3  2  1  9
8  3  2  1  10
9  4  2  3  11
10  4  3  4  12
11  4  4  5  13
12  4  5  6  14
13  4  2  7  15
14  4  7  6  14
15  4  4  3  11
16  4  5  4  12
17  5  8  1  10
18  5  9  1  10
19  2  5  6  7
20  5  8  1  9
21  4  6  5  13
22  2  2  7  6
23  4  6  7  15
24  2  3  2  7

Dihedrals

1  1  4  3  2  1
2  1  5  4  3  2
3  1  6  5  4  3
4  2  8  1  2  3
5  1  6  7  2  1
6  1  11  3  2  1
7  1  15  7  6  5
8  1  6  7  2  3
9  2  9  1  2  3
10  2  9  1  2  7
11  1  13  5  4  12
12  1  7  6  5  4
13  1  11  3  4  5
14  1  13  5  6  7
15  1  14  6  5  13
16  1  14  6  7  2
17  1  11  3  2  7
18  1  15  7  2  3
19  2  10  1  2  7
20  1  12  4  5  6
21  1  14  6  5  4
22  1  5  6  7  2
23  2  8  1  2  7
24  2  10  1  2  3
25  1  7  2  3  4
26  1  12  4  3  11
27  1  15  7  6  14
28  1  12  4  3  2
29  1  13  5  4  3
30  1  15  7  2  1

Impropers

1  1  2  1  3  7
2  2  1  9  8  2
3  2  1  10  8  2
4  1  3  2  11  4
5  1  4  3  12  5
6  1  5  4  13  6
7  1  6  5  14  7
8  1  7  2  15  6
