LAMMPS data file Created by LigParGen - (Written by Leela S. Dodda)

      55 atoms
      54 bonds
     105 angles
     150 dihedrals
      35 impropers
 
      55 atom types
      54 bond types
     105 angle types
     150 dihedral types
      35 improper types
 
  -17.703660    32.296340 xlo xhi
    0.112560    50.112560 ylo yhi
   -1.026770    48.973230 zlo zhi

Masses

       1     12.011  
       2     12.011  
       3     12.011  
       4     12.011  
       5     12.011  
       6     12.011  
       7     12.011  
       8     12.011  
       9     12.011  
      10     12.011  
      11     12.011  
      12     12.011  
      13     12.011  
      14     12.011  
      15     12.011  
      16     12.011  
      17     12.011  
      18     12.011  
      19     15.999  
      20     15.999  
      21      1.008  
      22      1.008  
      23      1.008  
      24      1.008  
      25      1.008  
      26      1.008  
      27      1.008  
      28      1.008  
      29      1.008  
      30      1.008  
      31      1.008  
      32      1.008  
      33      1.008  
      34      1.008  
      35      1.008  
      36      1.008  
      37      1.008  
      38      1.008  
      39      1.008  
      40      1.008  
      41      1.008  
      42      1.008  
      43      1.008  
      44      1.008  
      45      1.008  
      46      1.008  
      47      1.008  
      48      1.008  
      49      1.008  
      50      1.008  
      51      1.008  
      52      1.008  
      53      1.008  
      54      1.008  
      55      1.008  

Pair Coeffs 

       1      0.066  3.5000000 
       2      0.066  3.5000000 
       3      0.066  3.5000000 
       4      0.066  3.5000000 
       5      0.066  3.5000000 
       6      0.066  3.5000000 
       7      0.066  3.5000000 
       8      0.066  3.5000000 
       9      0.066  3.5000000 
      10      0.066  3.5000000 
      11      0.066  3.5000000 
      12      0.066  3.5000000 
      13      0.066  3.5000000 
      14      0.066  3.5000000 
      15      0.066  3.5000000 
      16      0.066  3.5000000 
      17      0.066  3.5000000 
      18      0.070  3.5500000 
      19      0.210  2.9600000 
      20      0.210  2.9600000 
      21      0.030  2.5000000 
      22      0.030  2.5000000 
      23      0.030  2.5000000 
      24      0.030  2.5000000 
      25      0.030  2.5000000 
      26      0.030  2.5000000 
      27      0.030  2.5000000 
      28      0.030  2.5000000 
      29      0.030  2.5000000 
      30      0.030  2.5000000 
      31      0.030  2.5000000 
      32      0.030  2.5000000 
      33      0.030  2.5000000 
      34      0.030  2.5000000 
      35      0.030  2.5000000 
      36      0.030  2.5000000 
      37      0.030  2.5000000 
      38      0.030  2.5000000 
      39      0.030  2.5000000 
      40      0.030  2.5000000 
      41      0.030  2.5000000 
      42      0.030  2.5000000 
      43      0.030  2.5000000 
      44      0.030  2.5000000 
      45      0.030  2.5000000 
      46      0.030  2.5000000 
      47      0.030  2.5000000 
      48      0.030  2.5000000 
      49      0.030  2.5000000 
      50      0.030  2.5000000 
      51      0.030  2.5000000 
      52      0.030  2.5000000 
      53      0.030  2.5000000 
      54      0.030  2.5000000 
      55      0.030  2.5000000 

Bond Coeffs 

       1   268.0000     1.5290 
       2   268.0000     1.5290 
       3   268.0000     1.5290 
       4   268.0000     1.5290 
       5   268.0000     1.5290 
       6   268.0000     1.5290 
       7   268.0000     1.5290 
       8   268.0000     1.5290 
       9   268.0000     1.5290 
      10   268.0000     1.5290 
      11   268.0000     1.5290 
      12   268.0000     1.5290 
      13   268.0000     1.5290 
      14   268.0000     1.5290 
      15   268.0000     1.5290 
      16   268.0000     1.5290 
      17   317.0000     1.5220 
      18   656.0000     1.2500 
      19   656.0000     1.2500 
      20   340.0000     1.0900 
      21   340.0000     1.0900 
      22   340.0000     1.0900 
      23   340.0000     1.0900 
      24   340.0000     1.0900 
      25   340.0000     1.0900 
      26   340.0000     1.0900 
      27   340.0000     1.0900 
      28   340.0000     1.0900 
      29   340.0000     1.0900 
      30   340.0000     1.0900 
      31   340.0000     1.0900 
      32   340.0000     1.0900 
      33   340.0000     1.0900 
      34   340.0000     1.0900 
      35   340.0000     1.0900 
      36   340.0000     1.0900 
      37   340.0000     1.0900 
      38   340.0000     1.0900 
      39   340.0000     1.0900 
      40   340.0000     1.0900 
      41   340.0000     1.0900 
      42   340.0000     1.0900 
      43   340.0000     1.0900 
      44   340.0000     1.0900 
      45   340.0000     1.0900 
      46   340.0000     1.0900 
      47   340.0000     1.0900 
      48   340.0000     1.0900 
      49   340.0000     1.0900 
      50   340.0000     1.0900 
      51   340.0000     1.0900 
      52   340.0000     1.0900 
      53   340.0000     1.0900 
      54   340.0000     1.0900 

Angle Coeffs 

       1     58.350    112.700
       2     58.350    112.700
       3     58.350    112.700
       4     58.350    112.700
       5     58.350    112.700
       6     58.350    112.700
       7     58.350    112.700
       8     58.350    112.700
       9     58.350    112.700
      10     58.350    112.700
      11     58.350    112.700
      12     58.350    112.700
      13     58.350    112.700
      14     58.350    112.700
      15     58.350    112.700
      16     63.000    111.100
      17     70.000    117.000
      18     70.000    117.000
      19     37.500    110.700
      20     37.500    110.700
      21     37.500    110.700
      22     37.500    110.700
      23     37.500    110.700
      24     37.500    110.700
      25     37.500    110.700
      26     37.500    110.700
      27     37.500    110.700
      28     37.500    110.700
      29     37.500    110.700
      30     37.500    110.700
      31     37.500    110.700
      32     37.500    110.700
      33     37.500    110.700
      34     37.500    110.700
      35     37.500    110.700
      36     37.500    110.700
      37     37.500    110.700
      38     37.500    110.700
      39     37.500    110.700
      40     37.500    110.700
      41     37.500    110.700
      42     37.500    110.700
      43     37.500    110.700
      44     37.500    110.700
      45     37.500    110.700
      46     37.500    110.700
      47     37.500    110.700
      48     37.500    110.700
      49     37.500    110.700
      50     37.500    110.700
      51     37.500    110.700
      52     37.500    110.700
      53     37.500    110.700
      54     35.000    109.500
      55     37.500    110.700
      56     37.500    110.700
      57     33.000    107.800
      58     33.000    107.800
      59     37.500    110.700
      60     35.000    109.500
      61     33.000    107.800
      62     37.500    110.700
      63     37.500    110.700
      64     37.500    110.700
      65     37.500    110.700
      66     37.500    110.700
      67     33.000    107.800
      68     37.500    110.700
      69     37.500    110.700
      70     37.500    110.700
      71     33.000    107.800
      72     37.500    110.700
      73     37.500    110.700
      74     37.500    110.700
      75     37.500    110.700
      76     33.000    107.800
      77     37.500    110.700
      78     37.500    110.700
      79     33.000    107.800
      80     33.000    107.800
      81     33.000    107.800
      82     37.500    110.700
      83     80.000    126.000
      84     37.500    110.700
      85     37.500    110.700
      86     37.500    110.700
      87     37.500    110.700
      88     33.000    107.800
      89     37.500    110.700
      90     33.000    107.800
      91     33.000    107.800
      92     37.500    110.700
      93     33.000    107.800
      94     33.000    107.800
      95     37.500    110.700
      96     33.000    107.800
      97     33.000    107.800
      98     37.500    110.700
      99     37.500    110.700
     100     37.500    110.700
     101     33.000    107.800
     102     37.500    110.700
     103     37.500    110.700
     104     33.000    107.800
     105     33.000    107.800

Dihedral Coeffs  

       1      1.300     -0.200      0.200      0.000 
       2      1.300     -0.200      0.200      0.000 
       3      1.300     -0.200      0.200      0.000 
       4      1.300     -0.200      0.200      0.000 
       5      1.300     -0.200      0.200      0.000 
       6      1.300     -0.200      0.200      0.000 
       7      1.300     -0.200      0.200      0.000 
       8      1.300     -0.200      0.200      0.000 
       9      1.300     -0.200      0.200      0.000 
      10      1.300     -0.200      0.200      0.000 
      11      1.300     -0.200      0.200      0.000 
      12      1.300     -0.200      0.200      0.000 
      13      1.300     -0.200      0.200      0.000 
      14      1.300     -0.200      0.200      0.000 
      15     -2.060     -0.313      0.315      0.000 
      16      0.000      0.000      0.000      0.000 
      17      0.000      0.000      0.300      0.000 
      18      0.000      0.000      0.300      0.000 
      19      0.000      0.000      0.300      0.000 
      20      0.000      0.000      0.300      0.000 
      21      0.000      0.000      0.000      0.000 
      22      0.000      0.000      0.300      0.000 
      23      0.000      0.000      0.300      0.000 
      24      0.000      0.000      0.300      0.000 
      25      0.000      0.000      0.300      0.000 
      26      0.000      0.000      0.300      0.000 
      27      0.000      0.000      0.300      0.000 
      28      0.000      0.000      0.300      0.000 
      29      0.000      0.000      0.300      0.000 
      30      0.000      0.000      0.000      0.000 
      31      0.000      0.000      0.300      0.000 
      32      0.000      0.000      0.300      0.000 
      33      0.000      0.000      0.300      0.000 
      34      0.000      0.000      0.300      0.000 
      35      0.000      0.000      0.300      0.000 
      36      0.000      0.000      0.300      0.000 
      37      0.000      0.000      0.300      0.000 
      38      0.000      0.000      0.300      0.000 
      39      0.000      0.000      0.300      0.000 
      40      0.000      0.000     -0.100      0.000 
      41      0.000      0.000      0.300      0.000 
      42      0.000      0.000      0.300      0.000 
      43      0.000      0.000      0.300      0.000 
      44      0.000      0.000      0.300      0.000 
      45      0.000      0.000      0.300      0.000 
      46      0.000      0.000      0.300      0.000 
      47      0.000      0.000      0.300      0.000 
      48      0.000      0.000      0.300      0.000 
      49      0.000      0.000      0.300      0.000 
      50      0.000      0.000      0.300      0.000 
      51      0.000      0.000      0.300      0.000 
      52      0.000      0.000      0.300      0.000 
      53      0.000      0.000      0.300      0.000 
      54      0.000      0.000      0.300      0.000 
      55      0.000      0.000      0.300      0.000 
      56      0.000      0.000      0.300      0.000 
      57      0.000      0.000      0.300      0.000 
      58      0.000      0.000      0.300      0.000 
      59      0.000      0.000      0.300      0.000 
      60      0.000      0.000      0.300      0.000 
      61      0.000      0.000      0.300      0.000 
      62      0.000      0.000      0.300      0.000 
      63      0.000      0.000      0.300      0.000 
      64      0.000      0.000      0.000      0.000 
      65      0.000      0.000      0.300      0.000 
      66      0.000      0.000      0.300      0.000 
      67      0.000      0.000      0.300      0.000 
      68      0.000      0.000      0.300      0.000 
      69      0.000      0.000      0.300      0.000 
      70      0.000      0.000      0.300      0.000 
      71      0.000      0.000      0.300      0.000 
      72      0.000      0.000      0.300      0.000 
      73      0.000      0.000      0.300      0.000 
      74      0.000      0.000      0.300      0.000 
      75      0.000      0.000      0.300      0.000 
      76      0.000      0.000      0.300      0.000 
      77      0.000      0.000      0.300      0.000 
      78      0.000      0.000      0.300      0.000 
      79      0.000      0.000      0.300      0.000 
      80      0.000      0.000      0.300      0.000 
      81      0.000      0.000      0.300      0.000 
      82      0.000      0.000      0.300      0.000 
      83      0.000      0.000      0.300      0.000 
      84      0.000      0.000      0.300      0.000 
      85      0.000      0.000      0.300      0.000 
      86      0.000      0.000      0.300      0.000 
      87      0.000      0.000      0.300      0.000 
      88      0.000      0.000      0.300      0.000 
      89      0.000      0.000      0.300      0.000 
      90      0.000      0.000      0.300      0.000 
      91      0.000      0.000      0.300      0.000 
      92      0.000      0.000      0.300      0.000 
      93      0.000      0.000      0.300      0.000 
      94      0.000      0.000      0.300      0.000 
      95      0.000      0.000      0.300      0.000 
      96      0.000      0.000      0.300      0.000 
      97      0.000      0.000      0.300      0.000 
      98      0.000      0.000      0.300      0.000 
      99      0.000      0.000      0.300      0.000 
     100      0.000      0.000      0.300      0.000 
     101      0.000      0.000      0.300      0.000 
     102      0.000      0.000      0.300      0.000 
     103      0.000      0.000      0.300      0.000 
     104      0.000      0.000      0.300      0.000 
     105      0.000      0.000      0.300      0.000 
     106      0.000      0.000      0.300      0.000 
     107      0.000      0.000      0.300      0.000 
     108      0.000      0.000      0.000      0.000 
     109      0.000      0.000      0.300      0.000 
     110      0.000      0.000      0.300      0.000 
     111      0.000      0.000      0.300      0.000 
     112      0.000      0.000      0.300      0.000 
     113      0.000      0.000      0.300      0.000 
     114      0.000      0.000      0.300      0.000 
     115      0.000      0.000      0.300      0.000 
     116      0.000      0.000      0.300      0.000 
     117      0.000      0.000      0.300      0.000 
     118      0.000      0.000      0.300      0.000 
     119      0.000      0.000      0.300      0.000 
     120      0.000      0.000      0.300      0.000 
     121      0.000      0.000      0.300      0.000 
     122      0.000      0.000      0.300      0.000 
     123      0.000      0.000      0.300      0.000 
     124      0.000      0.000     -0.100      0.000 
     125      0.000      0.000      0.300      0.000 
     126      0.000      0.000      0.300      0.000 
     127      0.000      0.000      0.300      0.000 
     128      0.000      0.000      0.300      0.000 
     129      0.000      0.000      0.300      0.000 
     130      0.000      0.000      0.300      0.000 
     131      0.000      0.000      0.300      0.000 
     132      0.000      0.000      0.300      0.000 
     133      0.000      0.000      0.300      0.000 
     134      0.000      0.000      0.300      0.000 
     135      0.000      0.000      0.300      0.000 
     136      0.000      0.000      0.300      0.000 
     137      0.000      0.000      0.000      0.000 
     138      0.000      0.000      0.300      0.000 
     139      0.000      0.000      0.300      0.000 
     140      0.000      0.000      0.300      0.000 
     141      0.000      0.000      0.300      0.000 
     142      0.000      0.000      0.300      0.000 
     143      0.000      0.000      0.300      0.000 
     144      0.000      0.000      0.300      0.000 
     145      0.000      0.000      0.300      0.000 
     146      0.000      0.000      0.300      0.000 
     147      0.000      0.000      0.300      0.000 
     148      0.000      0.000      0.300      0.000 
     149      0.000      0.000      0.300      0.000 
     150      0.000      0.000      0.300      0.000 

Improper Coeffs 

       1     10.500      -1       2 
       2      0.000      -1       2 
       3      0.000      -1       2 
       4      0.000      -1       2 
       5      0.000      -1       2 
       6      0.000      -1       2 
       7      0.000      -1       2 
       8      0.000      -1       2 
       9      0.000      -1       2 
      10      0.000      -1       2 
      11      0.000      -1       2 
      12      0.000      -1       2 
      13      0.000      -1       2 
      14      0.000      -1       2 
      15      0.000      -1       2 
      16      0.000      -1       2 
      17      0.000      -1       2 
      18      0.000      -1       2 
      19      0.000      -1       2 
      20      0.000      -1       2 
      21      0.000      -1       2 
      22      0.000      -1       2 
      23      0.000      -1       2 
      24      0.000      -1       2 
      25      0.000      -1       2 
      26      0.000      -1       2 
      27      0.000      -1       2 
      28      0.000      -1       2 
      29      0.000      -1       2 
      30      0.000      -1       2 
      31      0.000      -1       2 
      32      0.000      -1       2 
      33      0.000      -1       2 
      34      0.000      -1       2 
      35      0.000      -1       2 

Atoms 

     1      1      1 -0.20910000    1.000  1.00000  0.00000
     2      1      2 -0.15750000   -0.519  1.00000  0.00000
     3      1      3 -0.15690000   -1.068  1.00000  1.42246
     4      1      4 -0.15770000   -2.595  1.00180  1.42246
     5      1      5 -0.15760000   -3.137  1.00359  2.84909
     6      1      6 -0.15760000   -4.663  1.00359  2.85072
     7      1      7 -0.15780000   -5.200  1.00719  4.27757
     8      1      8 -0.15780000   -6.724  1.00538  4.27921
     9      1      9 -0.15780000   -7.259  1.01078  5.70604
    10      1     10 -0.15810000   -8.783  1.00718  5.70768
    11      1     11 -0.15780000   -9.318  1.01078  7.13450
    12      1     12 -0.15830000  -10.842  1.00897  7.13614
    13      1     13 -0.15810000  -11.381  1.01076  8.56285
    14      1     14 -0.15770000  -12.905  1.00714  8.55798
    15      1     15 -0.16130000  -13.459  1.00709  9.97955
    16      1     16 -0.13600000  -14.986  1.00526  9.95998
    17      1     17 -0.23330000  -15.560  1.00696 11.37048
    18      1     18 0.42830000  -17.091  1.00703 11.43401
    19      1     19 -0.63120000  -17.704  1.00569 10.33140
    20      1     20 -0.63120000  -17.555  1.00699 12.61052
    21      1     21 0.06970000    1.378  0.99870 -1.02677
    22      1     22 0.06970000    1.390  0.11256  0.50878
    23      1     23 0.06970000    1.390  1.88866  0.50649
    24      1     24 0.07730000   -0.881  0.11695 -0.53939
    25      1     25 0.07730000   -0.881  1.88308 -0.53940
    26      1     26 0.07820000   -0.701  1.88264  1.96091
    27      1     27 0.07820000   -0.703  0.11600  1.96011
    28      1     28 0.07820000   -2.966  0.11819  0.88911
    29      1     29 0.07820000   -2.964  1.88547  0.88765
    30      1     30 0.07810000   -2.768  1.88701  3.38371
    31      1     31 0.07810000   -2.769  0.12158  3.38589
    32      1     32 0.07840000   -5.033  0.11862  2.31927
    33      1     33 0.07840000   -5.033  1.88587  2.31481
    34      1     34 0.07800000   -4.830  1.89227  4.80968
    35      1     35 0.07800000   -4.828  0.12619  4.81490
    36      1     36 0.07830000   -7.093  0.11903  3.74925
    37      1     37 0.07830000   -7.095  1.88637  3.74175
    38      1     38 0.07750000   -6.890  1.89720  6.23624
    39      1     39 0.07750000   -6.886  0.13110  6.24451
    40      1     40 0.07780000   -9.151  0.12128  5.17587
    41      1     41 0.07780000   -9.155  1.88762  5.16988
    42      1     42 0.07630000   -8.947  1.89620  7.66526
    43      1     43 0.07630000   -8.945  0.12940  7.67050
    44      1     44 0.07700000  -11.210  0.12475  6.60159
    45      1     45 0.07700000  -11.212  1.89112  6.59962
    46      1     46 0.07360000  -11.013  1.89658  9.09462
    47      1     47 0.07360000  -11.009  0.12893  9.09846
    48      1     48 0.07560000  -13.268  0.12289  8.01970
    49      1     49 0.07560000  -13.272  1.88874  8.01812
    50      1     50 0.06510000  -13.095  1.89149 10.51634
    51      1     51 0.06510000  -13.093  0.12399 10.51711
    52      1     52 0.07950000  -15.342  0.12211  9.41536
    53      1     53 0.07950000  -15.344  1.88574  9.41237
    54      1     54 0.05890000  -15.202  1.89227 11.91025
    55      1     55 0.05890000  -15.202  0.12330 11.91335

Bonds 

     1      1      2      1
     2      2      3      2
     3      3      4      3
     4      4      5      4
     5      5      6      5
     6      6      7      6
     7      7      8      7
     8      8      9      8
     9      9     10      9
    10     10     11     10
    11     11     12     11
    12     12     13     12
    13     13     14     13
    14     14     15     14
    15     15     16     15
    16     16     17     16
    17     17     18     17
    18     18     19     18
    19     19     20     18
    20     20     21      1
    21     21     22      1
    22     22     23      1
    23     23     24      2
    24     24     25      2
    25     25     26      3
    26     26     27      3
    27     27     28      4
    28     28     29      4
    29     29     30      5
    30     30     31      5
    31     31     32      6
    32     32     33      6
    33     33     34      7
    34     34     35      7
    35     35     36      8
    36     36     37      8
    37     37     38      9
    38     38     39      9
    39     39     40     10
    40     40     41     10
    41     41     42     11
    42     42     43     11
    43     43     44     12
    44     44     45     12
    45     45     46     13
    46     46     47     13
    47     47     48     14
    48     48     49     14
    49     49     50     15
    50     50     51     15
    51     51     52     16
    52     52     53     16
    53     53     54     17
    54     54     55     17

Angles 

     1      1      1      2      3
     2      2      2      3      4
     3      3      3      4      5
     4      4      4      5      6
     5      5      5      6      7
     6      6      6      7      8
     7      7      7      8      9
     8      8      8      9     10
     9      9      9     10     11
    10     10     10     11     12
    11     11     11     12     13
    12     12     12     13     14
    13     13     13     14     15
    14     14     14     15     16
    15     15     15     16     17
    16     16     16     17     18
    17     17     17     18     19
    18     18     17     18     20
    19     19      2      1     21
    20     20      2      1     22
    21     21      2      1     23
    22     22      1      2     24
    23     23      1      2     25
    24     24      2      3     26
    25     25      2      3     27
    26     26      3      4     28
    27     27      3      4     29
    28     28      4      5     30
    29     29      4      5     31
    30     30      5      6     32
    31     31      5      6     33
    32     32      6      7     34
    33     33      6      7     35
    34     34      7      8     36
    35     35      7      8     37
    36     36      8      9     38
    37     37      8      9     39
    38     38      9     10     40
    39     39      9     10     41
    40     40     10     11     42
    41     41     10     11     43
    42     42     11     12     44
    43     43     11     12     45
    44     44     12     13     46
    45     45     12     13     47
    46     46     13     14     48
    47     47     13     14     49
    48     48     14     15     50
    49     49     14     15     51
    50     50     15     16     52
    51     51     15     16     53
    52     52     16     17     54
    53     53     16     17     55
    54     54     18     17     55
    55     55     16     15     50
    56     56     12     11     42
    57     57     50     15     51
    58     58     44     12     45
    59     59     10      9     39
    60     60     18     17     54
    61     61     32      6     33
    62     62      7      6     32
    63     63      6      5     30
    64     64      3      2     25
    65     65      5      4     28
    66     66      9      8     37
    67     67     40     10     41
    68     68      9      8     36
    69     69     11     10     41
    70     70     17     16     53
    71     71     52     16     53
    72     72     15     14     49
    73     73     11     10     40
    74     74      6      5     31
    75     75     14     13     47
    76     76     36      8     37
    77     77     17     16     52
    78     78      8      7     35
    79     79     21      1     23
    80     80     54     17     55
    81     81     24      2     25
    82     82     13     12     45
    83     83     19     18     20
    84     84      4      3     27
    85     85     14     13     46
    86     86      4      3     26
    87     87      8      7     34
    88     88     34      7     35
    89     89      5      4     29
    90     90     28      4     29
    91     91     26      3     27
    92     92     10      9     38
    93     93     42     11     43
    94     94     22      1     23
    95     95     16     15     51
    96     96     46     13     47
    97     97     48     14     49
    98     98     15     14     48
    99     99     13     12     44
   100    100     12     11     43
   101    101     21      1     22
   102    102      3      2     24
   103    103      7      6     33
   104    104     30      5     31
   105    105     38      9     39

Dihedrals

     1      1      4      3      2      1 
     2      2      5      4      3      2 
     3      3      6      5      4      3 
     4      4      7      6      5      4 
     5      5      8      7      6      5 
     6      6      9      8      7      6 
     7      7     10      9      8      7 
     8      8     11     10      9      8 
     9      9     12     11     10      9 
    10     10     13     12     11     10 
    11     11     14     13     12     11 
    12     12     15     14     13     12 
    13     13     16     15     14     13 
    14     14     17     16     15     14 
    15     15     18     17     16     15 
    16     16     19     18     17     16 
    17     17     21      1      2      3 
    18     18     27      3      4      5 
    19     19     45     12     11     10 
    20     20     40     10      9     39 
    21     21     54     17     18     20 
    22     22     28      4      3      2 
    23     23     42     11     12     13 
    24     24     35      7      8      9 
    25     25     54     17     16     53 
    26     26     51     15     14     48 
    27     27     50     15     14     49 
    28     28     54     17     16     15 
    29     29     41     10     11     12 
    30     30     55     17     18     20 
    31     31     29      4      3     26 
    32     32     28      4      3     27 
    33     33     38      9      8      7 
    34     34     52     16     15     50 
    35     35     23      1      2      3 
    36     36     31      5      6      7 
    37     37     38      9     10     11 
    38     38     48     14     13     12 
    39     39     41     10      9      8 
    40     40     53     16     17     18 
    41     41     26      3      2      1 
    42     42     35      7      6      5 
    43     43     32      6      7      8 
    44     44     55     17     16     52 
    45     45     46     13     12     44 
    46     46     32      6      5     30 
    47     47     40     10      9     38 
    48     48     31      5      4     29 
    49     49     40     10      9      8 
    50     50     33      6      5     31 
    51     51     30      5      4     29 
    52     52     31      5      4     28 
    53     53     33      6      7      8 
    54     54     51     15     14     49 
    55     55     49     14     15     16 
    56     56     44     12     11     43 
    57     57     36      8      9     10 
    58     58     30      5      4      3 
    59     59     26      3      2     25 
    60     60     27      3      2     24 
    61     61     37      8      7      6 
    62     62     34      7      8      9 
    63     63     37      8      7     35 
    64     64     20     18     17     16 
    65     65     24      2      1     22 
    66     66     51     15     16     17 
    67     67     43     11     10     41 
    68     68     25      2      1     21 
    69     69     42     11     10     40 
    70     70     47     13     14     15 
    71     71     29      4      3      2 
    72     72     55     17     16     53 
    73     73     43     11     10      9 
    74     74     26      3      4      5 
    75     75     45     12     11     43 
    76     76     39      9      8      7 
    77     77     53     16     15     51 
    78     78     36      8      7     35 
    79     79     37      8      7     34 
    80     80     52     16     15     14 
    81     81     47     13     12     45 
    82     82     55     17     16     15 
    83     83     50     15     14     48 
    84     84     44     12     11     42 
    85     85     43     11     12     13 
    86     86     49     14     13     12 