LAMMPS data file Created by LigParGen - (Written by Leela S. Dodda)

      56 atoms
      55 bonds
     106 angles
     152 dihedrals
      35 impropers
 
      56 atom types
      55 bond types
     106 angle types
     152 dihedral types
      35 improper types
 
  -17.753460    32.246540 xlo xhi
    0.088650    50.088650 ylo yhi
   -1.026650    48.973350 zlo zhi

Masses

       1     12.011  
       2     12.011  
       3     12.011  
       4     12.011  
       5     12.011  
       6     12.011  
       7     12.011  
       8     12.011  
       9     12.011  
      10     12.011  
      11     12.011  
      12     12.011  
      13     12.011  
      14     12.011  
      15     12.011  
      16     12.011  
      17     12.011  
      18     12.011  
      19     15.999  
      20     15.999  
      21      1.008  
      22      1.008  
      23      1.008  
      24      1.008  
      25      1.008  
      26      1.008  
      27      1.008  
      28      1.008  
      29      1.008  
      30      1.008  
      31      1.008  
      32      1.008  
      33      1.008  
      34      1.008  
      35      1.008  
      36      1.008  
      37      1.008  
      38      1.008  
      39      1.008  
      40      1.008  
      41      1.008  
      42      1.008  
      43      1.008  
      44      1.008  
      45      1.008  
      46      1.008  
      47      1.008  
      48      1.008  
      49      1.008  
      50      1.008  
      51      1.008  
      52      1.008  
      53      1.008  
      54      1.008  
      55      1.008  
      56      1.008  

Pair Coeffs 

       1      0.066  3.5000000 
       2      0.066  3.5000000 
       3      0.066  3.5000000 
       4      0.066  3.5000000 
       5      0.066  3.5000000 
       6      0.066  3.5000000 
       7      0.066  3.5000000 
       8      0.066  3.5000000 
       9      0.066  3.5000000 
      10      0.066  3.5000000 
      11      0.066  3.5000000 
      12      0.066  3.5000000 
      13      0.066  3.5000000 
      14      0.066  3.5000000 
      15      0.066  3.5000000 
      16      0.066  3.5000000 
      17      0.066  3.5000000 
      18      0.070  3.5500000 
      19      0.210  2.9600000 
      20      0.170  3.1200000 
      21      0.030  2.5000000 
      22      0.030  2.5000000 
      23      0.030  2.5000000 
      24      0.030  2.5000000 
      25      0.030  2.5000000 
      26      0.030  2.5000000 
      27      0.030  2.5000000 
      28      0.030  2.5000000 
      29      0.030  2.5000000 
      30      0.030  2.5000000 
      31      0.030  2.5000000 
      32      0.030  2.5000000 
      33      0.030  2.5000000 
      34      0.030  2.5000000 
      35      0.030  2.5000000 
      36      0.030  2.5000000 
      37      0.030  2.5000000 
      38      0.030  2.5000000 
      39      0.030  2.5000000 
      40      0.030  2.5000000 
      41      0.030  2.5000000 
      42      0.030  2.5000000 
      43      0.030  2.5000000 
      44      0.030  2.5000000 
      45      0.030  2.5000000 
      46      0.030  2.5000000 
      47      0.030  2.5000000 
      48      0.030  2.5000000 
      49      0.030  2.5000000 
      50      0.030  2.5000000 
      51      0.030  2.5000000 
      52      0.030  2.5000000 
      53      0.030  2.5000000 
      54      0.030  2.5000000 
      55      0.030  2.5000000 
      56      0.000  0.0000000 

Bond Coeffs 

       1   268.0000     1.5290 
       2   268.0000     1.5290 
       3   268.0000     1.5290 
       4   268.0000     1.5290 
       5   268.0000     1.5290 
       6   268.0000     1.5290 
       7   268.0000     1.5290 
       8   268.0000     1.5290 
       9   268.0000     1.5290 
      10   268.0000     1.5290 
      11   268.0000     1.5290 
      12   268.0000     1.5290 
      13   268.0000     1.5290 
      14   268.0000     1.5290 
      15   268.0000     1.5290 
      16   268.0000     1.5290 
      17   317.0000     1.5220 
      18   570.0000     1.2290 
      19   450.0000     1.3640 
      20   340.0000     1.0900 
      21   340.0000     1.0900 
      22   340.0000     1.0900 
      23   340.0000     1.0900 
      24   340.0000     1.0900 
      25   340.0000     1.0900 
      26   340.0000     1.0900 
      27   340.0000     1.0900 
      28   340.0000     1.0900 
      29   340.0000     1.0900 
      30   340.0000     1.0900 
      31   340.0000     1.0900 
      32   340.0000     1.0900 
      33   340.0000     1.0900 
      34   340.0000     1.0900 
      35   340.0000     1.0900 
      36   340.0000     1.0900 
      37   340.0000     1.0900 
      38   340.0000     1.0900 
      39   340.0000     1.0900 
      40   340.0000     1.0900 
      41   340.0000     1.0900 
      42   340.0000     1.0900 
      43   340.0000     1.0900 
      44   340.0000     1.0900 
      45   340.0000     1.0900 
      46   340.0000     1.0900 
      47   340.0000     1.0900 
      48   340.0000     1.0900 
      49   340.0000     1.0900 
      50   340.0000     1.0900 
      51   340.0000     1.0900 
      52   340.0000     1.0900 
      53   340.0000     1.0900 
      54   340.0000     1.0900 
      55   553.0000     0.9450 

Angle Coeffs 

       1     58.350    112.700
       2     58.350    112.700
       3     58.350    112.700
       4     58.350    112.700
       5     58.350    112.700
       6     58.350    112.700
       7     58.350    112.700
       8     58.350    112.700
       9     58.350    112.700
      10     58.350    112.700
      11     58.350    112.700
      12     58.350    112.700
      13     58.350    112.700
      14     58.350    112.700
      15     58.350    112.700
      16     63.000    111.100
      17     80.000    120.400
      18     70.000    108.000
      19     37.500    110.700
      20     37.500    110.700
      21     37.500    110.700
      22     37.500    110.700
      23     37.500    110.700
      24     37.500    110.700
      25     37.500    110.700
      26     37.500    110.700
      27     37.500    110.700
      28     37.500    110.700
      29     37.500    110.700
      30     37.500    110.700
      31     37.500    110.700
      32     37.500    110.700
      33     37.500    110.700
      34     37.500    110.700
      35     37.500    110.700
      36     37.500    110.700
      37     37.500    110.700
      38     37.500    110.700
      39     37.500    110.700
      40     37.500    110.700
      41     37.500    110.700
      42     37.500    110.700
      43     37.500    110.700
      44     37.500    110.700
      45     37.500    110.700
      46     37.500    110.700
      47     37.500    110.700
      48     37.500    110.700
      49     37.500    110.700
      50     37.500    110.700
      51     37.500    110.700
      52     37.500    110.700
      53     37.500    110.700
      54     35.000    113.000
      55     35.000    109.500
      56     37.500    110.700
      57     37.500    110.700
      58     33.000    107.800
      59     33.000    107.800
      60     37.500    110.700
      61     35.000    109.500
      62     33.000    107.800
      63     37.500    110.700
      64     37.500    110.700
      65     37.500    110.700
      66     37.500    110.700
      67     37.500    110.700
      68     33.000    107.800
      69     37.500    110.700
      70     37.500    110.700
      71     37.500    110.700
      72     33.000    107.800
      73     37.500    110.700
      74     37.500    110.700
      75     37.500    110.700
      76     37.500    110.700
      77     33.000    107.800
      78     37.500    110.700
      79     37.500    110.700
      80     33.000    107.800
      81     33.000    107.800
      82     33.000    107.800
      83     37.500    110.700
      84     80.000    121.000
      85     37.500    110.700
      86     37.500    110.700
      87     37.500    110.700
      88     37.500    110.700
      89     33.000    107.800
      90     37.500    110.700
      91     33.000    107.800
      92     33.000    107.800
      93     37.500    110.700
      94     33.000    107.800
      95     33.000    107.800
      96     37.500    110.700
      97     33.000    107.800
      98     33.000    107.800
      99     37.500    110.700
     100     37.500    110.700
     101     37.500    110.700
     102     33.000    107.800
     103     37.500    110.700
     104     37.500    110.700
     105     33.000    107.800
     106     33.000    107.800

Dihedral Coeffs  

       1      1.300     -0.200      0.200      0.000 
       2      1.300     -0.200      0.200      0.000 
       3      1.300     -0.200      0.200      0.000 
       4      1.300     -0.200      0.200      0.000 
       5      1.300     -0.200      0.200      0.000 
       6      1.300     -0.200      0.200      0.000 
       7      1.300     -0.200      0.200      0.000 
       8      1.300     -0.200      0.200      0.000 
       9      1.300     -0.200      0.200      0.000 
      10      1.300     -0.200      0.200      0.000 
      11      1.300     -0.200      0.200      0.000 
      12      1.300     -0.200      0.200      0.000 
      13      1.300     -0.200      0.200      0.000 
      14      1.300     -0.200      0.200      0.000 
      15     -2.060     -0.313      0.315      0.000 
      16      0.000      0.000      0.000      0.000 
      17      0.000      0.000      0.300      0.000 
      18      1.500      5.500      0.000      0.000 
      19      0.000      0.000      0.300      0.000 
      20      0.000      0.000      0.300      0.000 
      21      0.000      0.000      0.300      0.000 
      22      0.000      0.000      0.300      0.000 
      23      0.000      0.000      0.000      0.000 
      24      0.000      0.000      0.300      0.000 
      25      0.000      0.000      0.300      0.000 
      26      0.000      0.000      0.300      0.000 
      27      0.000      0.000      0.300      0.000 
      28      0.000      0.000      0.300      0.000 
      29      0.000      0.000      0.300      0.000 
      30      0.000      0.000      0.300      0.000 
      31      0.000      0.000      0.300      0.000 
      32      0.000      0.000      0.000      0.000 
      33      0.000      0.000      0.300      0.000 
      34      0.000      0.000      0.300      0.000 
      35      0.000      0.000      0.300      0.000 
      36      0.000      0.000      0.300      0.000 
      37      0.000      0.000      0.300      0.000 
      38      0.000      0.000      0.300      0.000 
      39      0.000      0.000      0.300      0.000 
      40      0.000      0.000      0.300      0.000 
      41      0.000      0.000      0.300      0.000 
      42      0.000      0.000     -0.100      0.000 
      43      0.000      0.000      0.300      0.000 
      44      0.000      0.000      0.300      0.000 
      45      0.000      0.000      0.300      0.000 
      46      0.000      0.000      0.300      0.000 
      47      0.000      0.000      0.300      0.000 
      48      0.000      0.000      0.300      0.000 
      49      0.000      0.000      0.300      0.000 
      50      0.000      0.000      0.300      0.000 
      51      0.000      0.000      0.300      0.000 
      52      0.000      0.000      0.300      0.000 
      53      0.000      0.000      0.300      0.000 
      54      0.000      0.000      0.300      0.000 
      55      0.000      0.000      0.300      0.000 
      56      0.000      0.000      0.300      0.000 
      57      0.000      0.000      0.300      0.000 
      58      0.000      0.000      0.300      0.000 
      59      0.000      0.000      0.300      0.000 
      60      0.000      0.000      0.300      0.000 
      61      0.000      0.000      0.300      0.000 
      62      0.000      0.000      0.300      0.000 
      63      0.000      0.000      0.300      0.000 
      64      0.000      0.000      0.300      0.000 
      65      1.000      0.546      0.450      0.000 
      66      0.000      0.000      0.300      0.000 
      67      0.000      0.000      0.300      0.000 
      68      0.000      0.000      0.300      0.000 
      69      0.000      0.000      0.300      0.000 
      70      0.000      0.000      0.300      0.000 
      71      0.000      0.000      0.300      0.000 
      72      0.000      0.000      0.300      0.000 
      73      0.000      0.000      0.300      0.000 
      74      0.000      0.000      0.300      0.000 
      75      0.000      0.000      0.300      0.000 
      76      0.000      0.000      0.300      0.000 
      77      0.000      0.000      0.300      0.000 
      78      0.000      0.000      0.300      0.000 
      79      0.000      0.000      0.300      0.000 
      80      0.000      0.000      0.300      0.000 
      81      0.000      0.000      0.300      0.000 
      82      0.000      0.000      0.300      0.000 
      83      0.000      0.000      0.300      0.000 
      84      0.000      0.000      0.300      0.000 
      85      0.000      0.000      0.300      0.000 
      86      0.000      0.000      0.300      0.000 
      87      0.000      0.000      0.300      0.000 
      88      0.000      0.000      0.300      0.000 
      89      0.000      0.000      0.300      0.000 
      90      0.000      0.000      0.300      0.000 
      91      0.000      0.000      0.300      0.000 
      92      0.000      0.000      0.300      0.000 
      93      0.000      0.000      0.300      0.000 
      94      0.000      0.000      0.300      0.000 
      95      0.000      0.000      0.300      0.000 
      96      0.000      0.000      0.300      0.000 
      97      0.000      0.000      0.300      0.000 
      98      0.000      0.000      0.300      0.000 
      99      0.000      0.000      0.300      0.000 
     100      0.000      0.000      0.300      0.000 
     101      0.000      0.000      0.300      0.000 
     102      0.000      0.000      0.300      0.000 
     103      0.000      0.000      0.300      0.000 
     104      0.000      0.000      0.300      0.000 
     105      0.000      0.000      0.300      0.000 
     106      0.000      0.000      0.300      0.000 
     107      0.000      0.000      0.300      0.000 
     108      0.000      0.000      0.300      0.000 
     109      0.000      0.000      0.000      0.000 
     110      0.000      0.000      0.300      0.000 
     111      0.000      0.000      0.300      0.000 
     112      0.000      0.000      0.300      0.000 
     113      0.000      0.000      0.300      0.000 
     114      0.000      0.000      0.300      0.000 
     115      0.000      0.000      0.300      0.000 
     116      0.000      0.000      0.300      0.000 
     117      0.000      0.000      0.300      0.000 
     118      0.000      0.000      0.300      0.000 
     119      0.000      0.000      0.300      0.000 
     120      0.000      0.000      0.300      0.000 
     121      0.000      0.000      0.300      0.000 
     122      0.000      0.000      0.300      0.000 
     123      0.000      0.000      0.300      0.000 
     124      0.000      0.000      0.300      0.000 
     125      0.000      0.000     -0.100      0.000 
     126      0.000      0.000      0.300      0.000 
     127      0.000      0.000      0.300      0.000 
     128      0.000      0.000      0.300      0.000 
     129      0.000      0.000      0.300      0.000 
     130      0.000      0.000      0.300      0.000 
     131      0.000      0.000      0.300      0.000 
     132      0.000      5.500      0.000      0.000 
     133      0.000      0.000      0.300      0.000 
     134      0.000      0.000      0.300      0.000 
     135      0.000      0.000      0.300      0.000 
     136      0.000      0.000      0.300      0.000 
     137      0.000      0.000      0.300      0.000 
     138      0.000      0.000      0.300      0.000 
     139      0.000      0.000      0.000      0.000 
     140      0.000      0.000      0.300      0.000 
     141      0.000      0.000      0.300      0.000 
     142      0.000      0.000      0.300      0.000 
     143      0.000      0.000      0.300      0.000 
     144      0.000      0.000      0.300      0.000 
     145      0.000      0.000      0.300      0.000 
     146      0.000      0.000      0.300      0.000 
     147      0.000      0.000      0.300      0.000 
     148      0.000      0.000      0.300      0.000 
     149      0.000      0.000      0.300      0.000 
     150      0.000      0.000      0.300      0.000 
     151      0.000      0.000      0.300      0.000 
     152      0.000      0.000      0.300      0.000 

Improper Coeffs 

       1     10.500      -1       2 
       2      0.000      -1       2 
       3      0.000      -1       2 
       4      0.000      -1       2 
       5      0.000      -1       2 
       6      0.000      -1       2 
       7      0.000      -1       2 
       8      0.000      -1       2 
       9      0.000      -1       2 
      10      0.000      -1       2 
      11      0.000      -1       2 
      12      0.000      -1       2 
      13      0.000      -1       2 
      14      0.000      -1       2 
      15      0.000      -1       2 
      16      0.000      -1       2 
      17      0.000      -1       2 
      18      0.000      -1       2 
      19      0.000      -1       2 
      20      0.000      -1       2 
      21      0.000      -1       2 
      22      0.000      -1       2 
      23      0.000      -1       2 
      24      0.000      -1       2 
      25      0.000      -1       2 
      26      0.000      -1       2 
      27      0.000      -1       2 
      28      0.000      -1       2 
      29      0.000      -1       2 
      30      0.000      -1       2 
      31      0.000      -1       2 
      32      0.000      -1       2 
      33      0.000      -1       2 
      34      0.000      -1       2 
      35      0.000      -1       2 

Atoms 

     1      1      1 -0.23890000    1.000  1.00000  0.00000
     2      1      2 -0.17960000   -0.519  1.00000  0.00000
     3      1      3 -0.17870000   -1.069  1.00000  1.42365
     4      1      4 -0.17960000   -2.596  0.99820  1.42365
     5      1      5 -0.17950000   -3.136  1.00002  2.85095
     6      1      6 -0.17960000   -4.662  0.99642  2.85421
     7      1      7 -0.17970000   -5.197  1.00006  4.28184
     8      1      8 -0.17970000   -6.722  0.99467  4.28674
     9      1      9 -0.17940000   -7.254  0.99651  5.71516
    10      1     10 -0.17970000   -8.777  0.99293  5.72331
    11      1     11 -0.17940000   -9.308  0.99298  7.15204
    12      1     12 -0.17960000  -10.832  0.99121  7.16182
    13      1     13 -0.17890000  -11.365  0.98945  8.59147
    14      1     14 -0.17910000  -12.890  0.98948  8.59474
    15      1     15 -0.17990000  -13.443  0.98594 10.01698
    16      1     16 -0.17070000  -14.970  0.98422  9.99736
    17      1     17 -0.26100000  -15.547  0.98246 11.40971
    18      1     18 0.50980000  -17.058  0.98254 11.39029
    19      1     19 -0.44460000  -17.753  0.98383 10.38782
    20      1     20 -0.55960000  -17.585  0.97941 12.63644
    21      1     21 0.08080000    1.378  1.00130 -1.02665
    22      1     22 0.08080000    1.390  0.11139  0.50646
    23      1     23 0.08080000    1.390  1.88736  0.50873
    24      1     24 0.08850000   -0.880  0.11667 -0.53956
    25      1     25 0.08850000   -0.880  1.88327 -0.53952
    26      1     26 0.08950000   -0.703  1.88355  1.96062
    27      1     27 0.08950000   -0.701  0.11781  1.96142
    28      1     28 0.08960000   -2.965  0.11315  0.89105
    29      1     29 0.08960000   -2.967  1.87982  0.88703
    30      1     30 0.08960000   -2.769  1.88547  3.38362
    31      1     31 0.08960000   -2.764  0.11869  3.38741
    32      1     32 0.09000000   -5.031  0.11000  2.32390
    33      1     33 0.09000000   -5.035  1.87682  2.31680
    34      1     34 0.08970000   -4.829  1.88690  4.81184
    35      1     35 0.08970000   -4.823  0.12041  4.81958
    36      1     36 0.09020000   -7.089  0.10851  3.75485
    37      1     37 0.09020000   -7.096  1.87494  3.75052
    38      1     38 0.08970000   -6.883  1.88189  6.24581
    39      1     39 0.08970000   -6.879  0.11517  6.24965
    40      1     40 0.09040000   -9.148  0.10797  5.19062
    41      1     41 0.09040000   -9.152  1.87451  5.18801
    42      1     42 0.08960000   -8.936  1.87712  7.68385
    43      1     43 0.08960000   -8.934  0.11020  7.68468
    44      1     44 0.09120000  -11.202  0.10797  6.62683
    45      1     45 0.09120000  -11.206  1.87401  6.62850
    46      1     46 0.08950000  -10.994  1.87233  9.12567
    47      1     47 0.08950000  -10.992  0.10553  9.12287
    48      1     48 0.09380000  -13.257  0.10773  8.05531
    49      1     49 0.09380000  -13.258  1.87232  8.05789
    50      1     50 0.08840000  -13.078  1.86883 10.55547
    51      1     51 0.08840000  -13.077  0.10195 10.55284
    52      1     52 0.11110000  -15.329  0.10351  9.44977
    53      1     53 0.11110000  -15.331  1.86480  9.45125
    54      1     54 0.12120000  -15.209  1.87582 11.94674
    55      1     55 0.12120000  -15.209  0.08865 11.94583
    56      1     56 0.45130000  -16.913  0.97761 13.34418

Bonds 

     1      1      2      1
     2      2      3      2
     3      3      4      3
     4      4      5      4
     5      5      6      5
     6      6      7      6
     7      7      8      7
     8      8      9      8
     9      9     10      9
    10     10     11     10
    11     11     12     11
    12     12     13     12
    13     13     14     13
    14     14     15     14
    15     15     16     15
    16     16     17     16
    17     17     18     17
    18     18     19     18
    19     19     20     18
    20     20     21      1
    21     21     22      1
    22     22     23      1
    23     23     24      2
    24     24     25      2
    25     25     26      3
    26     26     27      3
    27     27     28      4
    28     28     29      4
    29     29     30      5
    30     30     31      5
    31     31     32      6
    32     32     33      6
    33     33     34      7
    34     34     35      7
    35     35     36      8
    36     36     37      8
    37     37     38      9
    38     38     39      9
    39     39     40     10
    40     40     41     10
    41     41     42     11
    42     42     43     11
    43     43     44     12
    44     44     45     12
    45     45     46     13
    46     46     47     13
    47     47     48     14
    48     48     49     14
    49     49     50     15
    50     50     51     15
    51     51     52     16
    52     52     53     16
    53     53     54     17
    54     54     55     17
    55     55     56     20

Angles 

     1      1      1      2      3
     2      2      2      3      4
     3      3      3      4      5
     4      4      4      5      6
     5      5      5      6      7
     6      6      6      7      8
     7      7      7      8      9
     8      8      8      9     10
     9      9      9     10     11
    10     10     10     11     12
    11     11     11     12     13
    12     12     12     13     14
    13     13     13     14     15
    14     14     14     15     16
    15     15     15     16     17
    16     16     16     17     18
    17     17     17     18     19
    18     18     17     18     20
    19     19      2      1     21
    20     20      2      1     22
    21     21      2      1     23
    22     22      1      2     24
    23     23      1      2     25
    24     24      2      3     26
    25     25      2      3     27
    26     26      3      4     28
    27     27      3      4     29
    28     28      4      5     30
    29     29      4      5     31
    30     30      5      6     32
    31     31      5      6     33
    32     32      6      7     34
    33     33      6      7     35
    34     34      7      8     36
    35     35      7      8     37
    36     36      8      9     38
    37     37      8      9     39
    38     38      9     10     40
    39     39      9     10     41
    40     40     10     11     42
    41     41     10     11     43
    42     42     11     12     44
    43     43     11     12     45
    44     44     12     13     46
    45     45     12     13     47
    46     46     13     14     48
    47     47     13     14     49
    48     48     14     15     50
    49     49     14     15     51
    50     50     15     16     52
    51     51     15     16     53
    52     52     16     17     54
    53     53     16     17     55
    54     54     18     20     56
    55     55     18     17     55
    56     56     16     15     50
    57     57     12     11     42
    58     58     50     15     51
    59     59     44     12     45
    60     60     10      9     39
    61     61     18     17     54
    62     62     32      6     33
    63     63      7      6     32
    64     64      6      5     30
    65     65      3      2     25
    66     66      5      4     28
    67     67      9      8     37
    68     68     40     10     41
    69     69      9      8     36
    70     70     11     10     41
    71     71     17     16     53
    72     72     52     16     53
    73     73     15     14     49
    74     74     11     10     40
    75     75      6      5     31
    76     76     14     13     47
    77     77     36      8     37
    78     78     17     16     52
    79     79      8      7     35
    80     80     21      1     23
    81     81     54     17     55
    82     82     24      2     25
    83     83     13     12     45
    84     84     19     18     20
    85     85      4      3     27
    86     86     14     13     46
    87     87      4      3     26
    88     88      8      7     34
    89     89     34      7     35
    90     90      5      4     29
    91     91     28      4     29
    92     92     26      3     27
    93     93     10      9     38
    94     94     42     11     43
    95     95     22      1     23
    96     96     16     15     51
    97     97     46     13     47
    98     98     48     14     49
    99     99     15     14     48
   100    100     13     12     44
   101    101     12     11     43
   102    102     21      1     22
   103    103      3      2     24
   104    104      7      6     33
   105    105     30      5     31
   106    106     38      9     39

Dihedrals

     1      1      4      3      2      1 
     2      2      5      4      3      2 
     3      3      6      5      4      3 
     4      4      7      6      5      4 
     5      5      8      7      6      5 
     6      6      9      8      7      6 
     7      7     10      9      8      7 
     8      8     11     10      9      8 
     9      9     12     11     10      9 
    10     10     13     12     11     10 
    11     11     14     13     12     11 
    12     12     15     14     13     12 
    13     13     16     15     14     13 
    14     14     17     16     15     14 
    15     15     18     17     16     15 
    16     16     19     18     17     16 
    17     17     21      1      2      3 
    18     18     56     20     18     17 
    19     19     27      3      4      5 
    20     20     55     17     16     52 
    21     21     45     12     11     10 
    22     22     40     10      9     39 
    23     23     54     17     18     20 
    24     24     28      4      3      2 
    25     25     42     11     12     13 
    26     26     35      7      8      9 
    27     27     54     17     16     53 
    28     28     51     15     14     48 
    29     29     50     15     14     49 
    30     30     54     17     16     15 
    31     31     41     10     11     12 
    32     32     55     17     18     20 
    33     33     29      4      3     26 
    34     34     28      4      3     27 
    35     35     38      9      8      7 
    36     36     52     16     15     50 
    37     37     23      1      2      3 
    38     38     31      5      6      7 
    39     39     38      9     10     11 
    40     40     48     14     13     12 
    41     41     41     10      9      8 
    42     42     53     16     17     18 
    43     43     26      3      2      1 
    44     44     35      7      6      5 
    45     45     32      6      7      8 
    46     46     46     13     12     44 
    47     47     32      6      5     30 
    48     48     40     10      9     38 
    49     49     31      5      4     29 
    50     50     40     10      9      8 
    51     51     33      6      5     31 
    52     52     30      5      4     29 
    53     53     31      5      4     28 
    54     54     33      6      7      8 
    55     55     51     15     14     49 
    56     56     49     14     15     16 
    57     57     44     12     11     43 
    58     58     36      8      9     10 
    59     59     30      5      4      3 
    60     60     26      3      2     25 
    61     61     27      3      2     24 
    62     62     37      8      7      6 
    63     63     34      7      8      9 
    64     64     37      8      7     35 
    65     65     20     18     17     16 
    66     66     24      2      1     22 
    67     67     51     15     16     17 
    68     68     43     11     10     41 
    69     69     25      2      1     21 
    70     70     42     11     10     40 
    71     71     47     13     14     15 
    72     72     29      4      3      2 
    73     73     55     17     16     53 
    74     74     43     11     10      9 
    75     75     26      3      4      5 
    76     76     45     12     11     43 
    77     77     39      9      8      7 