#C18_acid

56 atoms
6 atom types

55 bonds
6 bond types

106 angles
9 angle types

152 dihedrals
8 dihedral types

35 impropers
2 improper types

-17.75346  32.24654  xlo xhi
0  50.08865  ylo yhi
-1.02665  48.97335  zlo zhi

Masses

1  12.011
2  12.011
3  15.999
4  15.999
5  1.008
6  1.008

Pair Coeffs

1  0.066  3.5
2  0.07  3.55
3  0.21  2.96
4  0.17  3.12
5  0.03  2.5
6  0.0  0.0

Bond Coeffs

1  268.0  1.529
2  317.0  1.522
3  570.0  1.229
4  450.0  1.364
5  340.0  1.09
6  553.0  0.945

Angle Coeffs

1  58.35  112.7
2  63.0  111.1
3  80.0  120.4
4  70.0  108.0
5  37.5  110.7
6  35.0  113.0
7  35.0  109.5
8  33.0  107.8
9  80.0  121.0

Dihedral Coeffs

1  1.3  -0.2  0.2  0.0
2  -2.06  -0.313  0.315  0.0
3  0.0  0.0  0.0  0.0
4  0.0  0.0  0.3  0.0
5  1.5  5.5  0.0  0.0
6  0.0  0.0  -0.1  0.0
7  1.0  0.546  0.45  0.0
8  0.0  5.5  0.0  0.0

Improper Coeffs

1  10.5  -1.0  2.0
2  0.0  -1.0  2.0

Atoms # full

1  1  1  -0.2389   1   1   0
2  1  1  -0.1796  -0.519   1   0
3  1  1  -0.1787  -1.069   1   1.42365
4  1  1  -0.1796  -2.596   0.9982   1.42365
5  1  1  -0.1795  -3.136   1.00002   2.85095
6  1  1  -0.1796  -4.662   0.99642   2.85421
7  1  1  -0.1797  -5.197   1.00006   4.28184
8  1  1  -0.1797  -6.722   0.99467   4.28674
9  1  1  -0.1794  -7.254   0.99651   5.71516
10  1  1  -0.1797  -8.777   0.99293   5.72331
11  1  1  -0.1794  -9.308   0.99298   7.15204
12  1  1  -0.1796  -10.832   0.99121   7.16182
13  1  1  -0.1789  -11.365   0.98945   8.59147
14  1  1  -0.1791  -12.89   0.98948   8.59474
15  1  1  -0.1799  -13.443   0.98594   10.01698
16  1  1  -0.1707  -14.97   0.98422   9.99736
17  1  1  -0.261  -15.547   0.98246   11.40971
18  1  2   0.5098  -17.058   0.98254   11.39029
19  1  3  -0.4446  -17.753   0.98383   10.38782
20  1  4  -0.5596  -17.585   0.97941   12.63644
21  1  5   0.0808   1.378   1.0013  -1.02665
22  1  5   0.0808   1.39   0.11139   0.50646
23  1  5   0.0808   1.39   1.88736   0.50873
24  1  5   0.0885  -0.88   0.11667  -0.53956
25  1  5   0.0885  -0.88   1.88327  -0.53952
26  1  5   0.0895  -0.703   1.88355   1.96062
27  1  5   0.0895  -0.701   0.11781   1.96142
28  1  5   0.0896  -2.965   0.11315   0.89105
29  1  5   0.0896  -2.967   1.87982   0.88703
30  1  5   0.0896  -2.769   1.88547   3.38362
31  1  5   0.0896  -2.764   0.11869   3.38741
32  1  5   0.09  -5.031   0.11   2.3239
33  1  5   0.09  -5.035   1.87682   2.3168
34  1  5   0.0897  -4.829   1.8869   4.81184
35  1  5   0.0897  -4.823   0.12041   4.81958
36  1  5   0.0902  -7.089   0.10851   3.75485
37  1  5   0.0902  -7.096   1.87494   3.75052
38  1  5   0.0897  -6.883   1.88189   6.24581
39  1  5   0.0897  -6.879   0.11517   6.24965
40  1  5   0.0904  -9.148   0.10797   5.19062
41  1  5   0.0904  -9.152   1.87451   5.18801
42  1  5   0.0896  -8.936   1.87712   7.68385
43  1  5   0.0896  -8.934   0.1102   7.68468
44  1  5   0.0912  -11.202   0.10797   6.62683
45  1  5   0.0912  -11.206   1.87401   6.6285
46  1  5   0.0895  -10.994   1.87233   9.12567
47  1  5   0.0895  -10.992   0.10553   9.12287
48  1  5   0.0938  -13.257   0.10773   8.05531
49  1  5   0.0938  -13.258   1.87232   8.05789
50  1  5   0.0884  -13.078   1.86883   10.55547
51  1  5   0.0884  -13.077   0.10195   10.55284
52  1  5   0.1111  -15.329   0.10351   9.44977
53  1  5   0.1111  -15.331   1.8648   9.45125
54  1  5   0.1212  -15.209   1.87582   11.94674
55  1  5   0.1212  -15.209   0.08865   11.94583
56  1  6   0.4513  -16.913   0.97761   13.34418

Bonds

1  1  2  1
2  1  3  2
3  1  4  3
4  1  5  4
5  1  6  5
6  1  7  6
7  1  8  7
8  1  9  8
9  1  10  9
10  1  11  10
11  1  12  11
12  1  13  12
13  1  14  13
14  1  15  14
15  1  16  15
16  1  17  16
17  2  18  17
18  3  19  18
19  4  20  18
20  5  21  1
21  5  22  1
22  5  23  1
23  5  24  2
24  5  25  2
25  5  26  3
26  5  27  3
27  5  28  4
28  5  29  4
29  5  30  5
30  5  31  5
31  5  32  6
32  5  33  6
33  5  34  7
34  5  35  7
35  5  36  8
36  5  37  8
37  5  38  9
38  5  39  9
39  5  40  10
40  5  41  10
41  5  42  11
42  5  43  11
43  5  44  12
44  5  45  12
45  5  46  13
46  5  47  13
47  5  48  14
48  5  49  14
49  5  50  15
50  5  51  15
51  5  52  16
52  5  53  16
53  5  54  17
54  5  55  17
55  6  56  20

Angles

1  1  1  2  3
2  1  2  3  4
3  1  3  4  5
4  1  4  5  6
5  1  5  6  7
6  1  6  7  8
7  1  7  8  9
8  1  8  9  10
9  1  9  10  11
10  1  10  11  12
11  1  11  12  13
12  1  12  13  14
13  1  13  14  15
14  1  14  15  16
15  1  15  16  17
16  2  16  17  18
17  3  17  18  19
18  4  17  18  20
19  5  2  1  21
20  5  2  1  22
21  5  2  1  23
22  5  1  2  24
23  5  1  2  25
24  5  2  3  26
25  5  2  3  27
26  5  3  4  28
27  5  3  4  29
28  5  4  5  30
29  5  4  5  31
30  5  5  6  32
31  5  5  6  33
32  5  6  7  34
33  5  6  7  35
34  5  7  8  36
35  5  7  8  37
36  5  8  9  38
37  5  8  9  39
38  5  9  10  40
39  5  9  10  41
40  5  10  11  42
41  5  10  11  43
42  5  11  12  44
43  5  11  12  45
44  5  12  13  46
45  5  12  13  47
46  5  13  14  48
47  5  13  14  49
48  5  14  15  50
49  5  14  15  51
50  5  15  16  52
51  5  15  16  53
52  5  16  17  54
53  5  16  17  55
54  6  18  20  56
55  7  18  17  55
56  5  16  15  50
57  5  12  11  42
58  8  50  15  51
59  8  44  12  45
60  5  10  9  39
61  7  18  17  54
62  8  32  6  33
63  5  7  6  32
64  5  6  5  30
65  5  3  2  25
66  5  5  4  28
67  5  9  8  37
68  8  40  10  41
69  5  9  8  36
70  5  11  10  41
71  5  17  16  53
72  8  52  16  53
73  5  15  14  49
74  5  11  10  40
75  5  6  5  31
76  5  14  13  47
77  8  36  8  37
78  5  17  16  52
79  5  8  7  35
80  8  21  1  23
81  8  54  17  55
82  8  24  2  25
83  5  13  12  45
84  9  19  18  20
85  5  4  3  27
86  5  14  13  46
87  5  4  3  26
88  5  8  7  34
89  8  34  7  35
90  5  5  4  29
91  8  28  4  29
92  8  26  3  27
93  5  10  9  38
94  8  42  11  43
95  8  22  1  23
96  5  16  15  51
97  8  46  13  47
98  8  48  14  49
99  5  15  14  48
100  5  13  12  44
101  5  12  11  43
102  8  21  1  22
103  5  3  2  24
104  5  7  6  33
105  8  30  5  31
106  8  38  9  39

Dihedrals

1  1  4  3  2  1
2  1  5  4  3  2
3  1  6  5  4  3
4  1  7  6  5  4
5  1  8  7  6  5
6  1  9  8  7  6
7  1  10  9  8  7
8  1  11  10  9  8
9  1  12  11  10  9
10  1  13  12  11  10
11  1  14  13  12  11
12  1  15  14  13  12
13  1  16  15  14  13
14  1  17  16  15  14
15  2  18  17  16  15
16  3  19  18  17  16
17  4  21  1  2  3
18  5  56  20  18  17
19  4  27  3  4  5
20  4  55  17  16  52
21  4  45  12  11  10
22  4  40  10  9  39
23  3  54  17  18  20
24  4  28  4  3  2
25  4  42  11  12  13
26  4  35  7  8  9
27  4  54  17  16  53
28  4  51  15  14  48
29  4  50  15  14  49
30  4  54  17  16  15
31  4  41  10  11  12
32  3  55  17  18  20
33  4  29  4  3  26
34  4  28  4  3  27
35  4  38  9  8  7
36  4  52  16  15  50
37  4  23  1  2  3
38  4  31  5  6  7
39  4  38  9  10  11
40  4  48  14  13  12
41  4  41  10  9  8
42  6  53  16  17  18
43  4  26  3  2  1
44  4  35  7  6  5
45  4  32  6  7  8
46  4  46  13  12  44
47  4  32  6  5  30
48  4  40  10  9  38
49  4  31  5  4  29
50  4  40  10  9  8
51  4  33  6  5  31
52  4  30  5  4  29
53  4  31  5  4  28
54  4  33  6  7  8
55  4  51  15  14  49
56  4  49  14  15  16
57  4  44  12  11  43
58  4  36  8  9  10
59  4  30  5  4  3
60  4  26  3  2  25
61  4  27  3  2  24
62  4  37  8  7  6
63  4  34  7  8  9
64  4  37  8  7  35
65  7  20  18  17  16
66  4  24  2  1  22
67  4  51  15  16  17
68  4  43  11  10  41
69  4  25  2  1  21
70  4  42  11  10  40
71  4  47  13  14  15
72  4  29  4  3  2
73  4  55  17  16  53
74  4  43  11  10  9
75  4  26  3  4  5
76  4  45  12  11  43
77  4  39  9  8  7
78  4  53  16  15  51
79  4  36  8  7  35
80  4  37  8  7  34
81  4  52  16  15  14
82  4  47  13  12  45
83  4  55  17  16  15
84  4  50  15  14  48
85  4  44  12  11  42
86  4  43  11  12  13
87  4  49  14  13  12
88  4  48  14  13  46
89  4  51  15  14  13
90  4  54  17  16  52
91  4  33  6  5  30
92  4  27  3  2  1
93  4  29  4  5  6
94  4  24  2  3  4
95  4  31  5  4  3
96  4  46  13  12  45
97  4  47  13  12  44
98  4  28  4  5  6
99  4  33  6  5  4
100  4  30  5  6  7
101  4  43  11  10  40
102  4  42  11  10  41
103  4  24  2  1  21
104  4  49  14  13  46
105  4  48  14  13  47
106  4  34  7  6  5
107  4  34  7  6  32
108  4  32  6  5  4
109  3  54  17  18  19
110  4  50  15  16  17
111  4  46  13  14  15
112  4  25  2  1  23
113  4  45  12  11  42
114  4  26  3  2  24
115  4  22  1  2  3
116  4  39  9  10  11
117  4  36  8  7  6
118  4  53  16  15  14
119  4  40  10  11  12
120  4  24  2  1  23
121  4  25  2  1  22
122  4  38  9  8  37
123  4  45  12  13  14
124  4  47  13  12  11
125  6  52  16  17  18
126  4  44  12  13  14
127  4  35  7  6  32
128  4  34  7  6  33
129  4  46  13  12  11
130  4  30  5  4  28
131  4  41  10  9  39
132  8  56  20  18  19
133  4  39  9  8  36
134  4  29  4  3  27
135  4  36  8  7  34
136  4  41  10  9  38
137  4  39  9  8  37
138  4  48  14  15  16
139  3  55  17  18  19
140  4  42  11  10  9
141  4  25  2  3  4
142  4  52  16  15  51
143  4  53  16  15  50
144  4  32  6  5  31
145  4  49  14  13  47
146  4  28  4  3  26
147  4  50  15  14  13
148  4  27  3  2  25
149  4  38  9  8  36
150  4  37  8  9  10
151  4  35  7  6  33
152  4  44  12  11  10

Impropers

1  1  18  17  19  20
2  2  1  2  21  22
3  2  1  2  21  23
4  2  2  1  3  24
5  2  2  25  3  1
6  2  3  26  4  2
7  2  3  2  27  4
8  2  4  3  28  5
9  2  4  5  3  29
10  2  5  4  30  6
11  2  5  4  6  31
12  2  6  5  7  32
13  2  6  33  5  7
14  2  7  34  6  8
15  2  7  35  6  8
16  2  8  9  36  7
17  2  8  9  37  7
18  2  9  10  38  8
19  2  9  10  39  8
20  2  10  9  11  40
21  2  10  41  11  9
22  2  11  42  12  10
23  2  11  10  43  12
24  2  12  11  44  13
25  2  12  13  11  45
26  2  13  12  46  14
27  2  13  12  14  47
28  2  14  13  15  48
29  2  14  49  13  15
30  2  15  50  14  16
31  2  15  51  14  16
32  2  16  17  52  15
33  2  16  17  53  15
34  2  17  18  54  16
35  2  17  18  55  16
