#oleic_acid

54 atoms
7 atom types

53 bonds
9 bond types

100 angles
12 angle types

141 dihedrals
14 dihedral types

33 impropers
3 improper types

-12.19622  37.80378  xlo xhi
-6.34222  43.65778  ylo yhi
-1.02689  48.97311  zlo zhi

Masses

1  12.011
2  12.011
3  12.011
4  15.999
5  15.999
6  1.008
7  1.008

Pair Coeffs

1  0.066  3.5
2  0.076  3.55
3  0.07  3.55
4  0.17  3.12
5  0.21  2.96
6  0.03  2.5
7  0.0  2.5  #sigma=0 from ligpargen, setting = 2.5 for lammps

Bond Coeffs

1  268.0  1.529
2  317.0  1.51
3  549.0  1.34
4  317.0  1.522
5  450.0  1.364
6  570.0  1.229
7  340.0  1.09
8  340.0  1.08
9  553.0  0.945

Angle Coeffs

1  58.35  112.7
2  63.0  111.1
3  70.0  124.0
4  70.0  108.0
5  80.0  120.4
6  37.5  110.7
7  35.0  117.0
8  35.0  120.0
9  35.0  109.5
10  35.0  113.0
11  33.0  107.8
12  80.0  121.0

Dihedral Coeffs

1  1.3  -0.2  0.2  0.0
2  0.346  0.405  -0.904  0.0
3  0.0  14.0  0.0  0.0
4  -2.06  -0.313  0.315  0.0
5  1.0  0.546  0.45  0.0
6  0.0  0.0  0.3  0.0
7  1.5  5.5  0.0  0.0
8  0.0  0.0  0.366  0.0
9  0.0  0.0  -0.1  0.0
10  0.0  -8.0  0.0  0.0
11  0.0  0.0  -0.372  0.0
12  0.0  0.0  0.0  0.0
13  0.0  0.0  0.318  0.0
14  0.0  5.5  0.0  0.0

Improper Coeffs

1  10.5  -1.0  2.0
2  0.0  -1.0  2.0
3  2.5  -1.0  2.0

Atoms # full

1  1  1  -0.2388   1   1   0
2  1  1  -0.1796  -0.519   1   0
3  1  1  -0.1786  -1.071   1   1.42395
4  1  1  -0.1793  -2.598   0.9982   1.42395
5  1  1  -0.1791  -3.143   0.99641   2.85015
6  1  1  -0.1803  -4.67   0.99641   2.85015
7  1  1  -0.1768  -5.217   0.99642   4.27546
8  1  1  -0.1448  -6.744   1.0621   4.26946
9  1  2  -0.1897  -7.29   1.06432   5.66571
10  1  2  -0.198  -8.441   0.46649   6.00424
11  1  1  -0.1428  -8.991   0.46354   7.39807
12  1  1  -0.1749  -9.174  -0.96759   7.89781
13  1  1  -0.18  -9.734  -0.98201   9.31852
14  1  1  -0.1781  -9.917  -2.4142   9.81472
15  1  1  -0.1801  -10.478  -2.44008   11.23482
16  1  1  -0.1701  -10.66  -3.87608   11.72193
17  1  1  -0.2606  -11.222  -3.91669   13.14042
18  1  3   0.5096  -11.406  -5.33393   13.62854
19  1  4  -0.5595  -11.906  -5.38163   14.88572
20  1  5  -0.4448  -11.147  -6.34222   12.99086
21  1  6   0.0809   1.378   0.9987  -1.02689
22  1  6   0.0809   1.39   0.11282   0.50862
23  1  6   0.0809   1.39   1.88853   0.50642
24  1  6   0.0884  -0.88   0.11628  -0.5398
25  1  6   0.0884  -0.881   1.88338  -0.53959
26  1  6   0.0896  -0.704   1.88386   1.96035
27  1  6   0.0896  -0.702   0.1175   1.96116
28  1  6   0.0895  -2.966   0.11477   0.88787
29  1  6   0.0895  -2.968   1.88171   0.88925
30  1  6   0.0899  -2.775   1.87958   3.38614
31  1  6   0.0899  -2.775   0.11331   3.3861
32  1  6   0.0898  -5.04   0.11414   2.31408
33  1  6   0.0898  -5.036   1.88101   2.31548
34  1  6   0.0919  -4.812   1.85913   4.82013
35  1  6   0.0919  -4.879   0.09544   4.80285
36  1  6   0.0981  -7.143   0.2123   3.70198
37  1  6   0.0981  -7.066   1.981   3.76652
38  1  6   0.1363  -6.709   1.58265   6.4261
39  1  6   0.136  -9.024  -0.0495   5.24364
40  1  6   0.0951  -9.955   0.98646   7.39603
41  1  6   0.0951  -8.328   1.01093   8.07812
42  1  6   0.0939  -8.212  -1.49558   7.87595
43  1  6   0.0939  -9.854  -1.51043   7.22873
44  1  6   0.0892  -10.696  -0.45579   9.34037
45  1  6   0.0892  -9.052  -0.4432   9.98758
46  1  6   0.0943  -8.953  -2.93728   9.78959
47  1  6   0.0943  -10.595  -2.95166   9.14079
48  1  6   0.0881  -11.442  -1.91663   11.2592
49  1  6   0.0881  -9.8  -1.903   11.90898
50  1  6   0.1112  -9.696  -4.39869   11.69117
51  1  6   0.1112  -11.334  -4.41256   11.04226
52  1  6   0.1211  -12.196  -3.41578   13.16522
53  1  6   0.1211  -10.536  -3.40428   13.82438
54  1  7   0.451  -12.067  -4.50217   15.2754

Bonds

1  1  2  1
2  1  3  2
3  1  4  3
4  1  5  4
5  1  6  5
6  1  7  6
7  1  8  7
8  2  9  8
9  3  10  9
10  2  11  10
11  1  12  11
12  1  13  12
13  1  14  13
14  1  15  14
15  1  16  15
16  1  17  16
17  4  18  17
18  5  19  18
19  6  20  18
20  7  21  1
21  7  22  1
22  7  23  1
23  7  24  2
24  7  25  2
25  7  26  3
26  7  27  3
27  7  28  4
28  7  29  4
29  7  30  5
30  7  31  5
31  7  32  6
32  7  33  6
33  7  34  7
34  7  35  7
35  7  36  8
36  7  37  8
37  8  38  9
38  8  39  10
39  7  40  11
40  7  41  11
41  7  42  12
42  7  43  12
43  7  44  13
44  7  45  13
45  7  46  14
46  7  47  14
47  7  48  15
48  7  49  15
49  7  50  16
50  7  51  16
51  7  52  17
52  7  53  17
53  9  54  19

Angles

1  1  1  2  3
2  1  2  3  4
3  1  3  4  5
4  1  4  5  6
5  1  5  6  7
6  1  6  7  8
7  2  7  8  9
8  3  8  9  10
9  3  9  10  11
10  2  10  11  12
11  1  11  12  13
12  1  12  13  14
13  1  13  14  15
14  1  14  15  16
15  1  15  16  17
16  2  16  17  18
17  4  17  18  19
18  5  17  18  20
19  6  2  1  21
20  6  2  1  22
21  6  2  1  23
22  6  1  2  24
23  6  1  2  25
24  6  2  3  26
25  6  2  3  27
26  6  3  4  28
27  6  3  4  29
28  6  4  5  30
29  6  4  5  31
30  6  5  6  32
31  6  5  6  33
32  6  6  7  34
33  6  6  7  35
34  6  7  8  36
35  6  7  8  37
36  7  8  9  38
37  8  9  10  39
38  9  10  11  40
39  9  10  11  41
40  6  11  12  42
41  6  11  12  43
42  6  12  13  44
43  6  12  13  45
44  6  13  14  46
45  6  13  14  47
46  6  14  15  48
47  6  14  15  49
48  6  15  16  50
49  6  15  16  51
50  6  16  17  52
51  6  16  17  53
52  10  18  19  54
53  6  15  14  47
54  9  9  8  36
55  6  16  15  49
56  11  46  14  47
57  6  17  16  50
58  6  7  6  32
59  11  21  1  23
60  6  3  2  25
61  6  14  13  45
62  6  5  4  28
63  11  50  16  51
64  9  9  8  37
65  6  15  14  46
66  11  48  15  49
67  6  13  12  42
68  6  6  5  31
69  11  42  12  43
70  11  44  13  45
71  11  32  6  33
72  11  36  8  37
73  6  8  7  35
74  6  6  5  30
75  11  24  2  25
76  11  21  1  22
77  9  18  17  52
78  12  19  18  20
79  6  4  3  27
80  6  13  12  43
81  6  4  3  26
82  6  8  7  34
83  9  18  17  53
84  11  34  7  35
85  6  5  4  29
86  11  52  17  53
87  6  16  15  48
88  11  26  3  27
89  7  11  10  39
90  8  10  9  38
91  11  22  1  23
92  11  28  4  29
93  6  12  11  40
94  11  40  11  41
95  6  3  2  24
96  6  7  6  33
97  6  17  16  51
98  11  30  5  31
99  6  12  11  41
100  6  14  13  44

Dihedrals

1  1  4  3  2  1
2  1  5  4  3  2
3  1  6  5  4  3
4  1  7  6  5  4
5  1  8  7  6  5
6  1  9  8  7  6
7  2  10  9  8  7
8  3  11  10  9  8
9  2  12  11  10  9
10  1  13  12  11  10
11  1  14  13  12  11
12  1  15  14  13  12
13  1  16  15  14  13
14  1  17  16  15  14
15  4  18  17  16  15
16  5  19  18  17  16
17  6  21  1  2  3
18  7  54  19  18  17
19  6  27  3  4  5
20  6  50  16  15  48
21  6  28  4  3  2
22  6  47  14  13  45
23  8  35  7  8  9
24  6  48  15  14  47
25  6  49  15  14  46
26  9  51  16  17  18
27  6  29  4  3  26
28  6  28  4  3  27
29  10  38  9  8  7
30  6  53  17  16  51
31  6  23  1  2  3
32  6  48  15  16  17
33  6  51  16  15  14
34  6  45  13  14  15
35  6  53  17  16  15
36  9  50  16  17  18
37  3  38  9  10  11
38  6  45  13  12  42
39  6  26  3  2  1
40  6  46  14  13  45
41  6  47  14  13  44
42  6  35  7  6  5
43  6  32  6  7  8
44  6  32  6  5  30
45  6  43  12  11  40
46  6  42  12  11  41
47  6  31  5  4  29
48  6  45  13  12  11
49  6  24  2  1  22
50  6  30  5  4  29
51  6  31  5  4  28
52  6  33  6  7  8
53  11  36  8  9  10
54  6  30  5  4  3
55  6  26  3  2  25
56  6  27  3  2  24
57  6  37  8  7  6
58  8  34  7  8  9
59  6  22  1  2  3
60  6  37  8  7  35
61  6  40  11  12  13
62  6  44  13  12  43
63  8  43  12  11  10
64  12  20  18  17  16
65  3  39  10  9  8
66  6  25  2  1  21
67  13  40  11  10  39
68  6  29  4  3  2
69  6  49  15  16  17
70  6  47  14  13  12
71  6  44  13  14  15
72  6  29  4  5  6
73  6  52  17  16  15
74  6  36  8  7  35
75  6  37  8  7  34
76  6  35  7  6  33
77  6  45  13  12  43
78  6  48  15  14  46
79  6  48  15  14  13
80  6  33  6  5  30
81  6  42  12  11  40
82  6  27  3  2  1
83  6  24  2  3  4
84  6  31  5  4  3
85  6  47  14  15  16
86  6  28  4  5  6
87  6  33  6  5  4
88  6  30  5  6  7
89  13  41  11  10  39
90  6  24  2  1  21
91  6  42  12  13  14
92  6  34  7  6  5
93  6  34  7  6  32
94  6  32  6  5  4
95  6  49  15  14  13
96  12  53  17  18  20
97  6  33  6  5  31
98  6  43  12  11  41
99  6  50  16  15  14
100  6  31  5  6  7
101  3  39  10  9  38
102  6  26  3  2  24
103  8  42  12  11  10
104  6  53  17  16  50
105  6  51  16  15  49
106  6  36  8  7  6
107  13  38  9  8  37
108  6  50  16  15  49
109  6  51  16  15  48
110  6  24  2  1  23
111  6  25  2  1  22
112  14  54  19  18  20
113  6  49  15  14  47
114  6  43  12  13  14
115  6  35  7  6  32
116  6  34  7  6  33
117  6  26  3  4  5
118  12  52  17  18  19
119  10  39  10  11  12
120  6  29  4  3  27
121  6  36  8  7  34
122  6  44  13  12  42
123  6  30  5  4  28
124  6  25  2  1  23
125  11  40  11  10  9
126  6  25  2  3  4
127  6  32  6  5  31
128  6  28  4  3  26
129  6  44  13  12  11
130  6  52  17  16  50
131  6  27  3  2  25
132  13  38  9  8  36
133  11  37  8  9  10
134  6  46  14  13  12
135  6  46  14  15  16
136  6  46  14  13  44
137  11  41  11  10  9
138  6  41  11  12  13
139  6  52  17  16  51
140  12  53  17  18  19
141  12  52  17  18  20

Impropers

1  1  18  17  19  20
2  2  1  2  21  22
3  2  1  2  21  23
4  2  2  1  3  24
5  2  2  25  3  1
6  2  3  26  4  2
7  2  3  2  27  4
8  2  4  3  28  5
9  2  4  5  3  29
10  2  5  4  30  6
11  2  5  4  6  31
12  2  6  5  7  32
13  2  6  33  5  7
14  2  7  34  6  8
15  2  7  35  6  8
16  2  8  9  36  7
17  2  8  9  37  7
18  3  9  10  38  8
19  3  10  9  11  39
20  2  11  10  12  40
21  2  11  41  10  12
22  2  12  42  11  13
23  2  12  43  13  11
24  2  13  12  44  14
25  2  13  12  45  14
26  2  14  13  46  15
27  2  14  15  13  47
28  2  15  16  14  48
29  2  15  49  14  16
30  2  16  17  50  15
31  2  16  17  51  15
32  2  17  18  52  16
33  2  17  18  53  16
