#ligand_ol

53 atoms
5 atom types

52 bonds
7 bond types

99 angles
10 angle types

139 dihedrals
11 dihedral types

33 impropers
3 improper types

-12.19921  37.80079  xlo xhi
-6.31568  43.68432  ylo yhi
-1.02667  48.97333  zlo zhi
0  0  0  xy xz yz

Masses

1  12.011
2  12.011
3  12.011
4  15.999
5  1.008

Pair Coeffs

1  0.066  3.5
2  0.076  3.55
3  0.07  3.55
4  0.21  2.96
5  0.03  2.5

Bond Coeffs

1  268.0  1.529
2  317.0  1.51
3  549.0  1.34
4  317.0  1.522
5  656.0  1.25
6  340.0  1.09
7  340.0  1.08

Angle Coeffs

1  58.35  112.7
2  63.0  111.1
3  70.0  124.0
4  70.0  117.0
5  37.5  110.7
6  35.0  117.0
7  35.0  120.0
8  35.0  109.5
9  33.0  107.8
10  80.0  126.0

Dihedral Coeffs

1  1.3  -0.2  0.2  0.0
2  0.346  0.405  -0.904  0.0
3  0.0  14.0  0.0  0.0
4  -2.06  -0.313  0.315  0.0
5  0.0  0.0  0.0  0.0
6  0.0  0.0  0.3  0.0
7  0.0  0.0  0.366  0.0
8  0.0  0.0  -0.1  0.0
9  0.0  -8.0  0.0  0.0
10  0.0  0.0  -0.372  0.0
11  0.0  0.0  0.318  0.0

Improper Coeffs

1  10.5  -1.0  2.0
2  0.0  -1.0  2.0
3  2.5  -1.0  2.0

Atoms # full

1  1  1  -0.2092   1   1   0
2  1  1  -0.1575  -0.52   1   0
3  1  1  -0.1567  -1.073   1   1.42303
4  1  1  -0.1574  -2.601   0.9982   1.4214
5  1  1  -0.1575  -3.15   0.9964   2.84781
6  1  1  -0.1578  -4.678   0.9964   2.84617
7  1  1  -0.1549  -5.227   0.9928   4.27197
8  1  1  -0.123  -6.754   1.05847   4.26613
9  1  2  -0.1849  -7.303   1.05723   5.66174
10  1  2  -0.1573  -8.449   0.44874   6.00038
11  1  1  -0.1294  -9.002   0.44325   7.3953
12  1  1  -0.1541  -9.184  -0.98776   7.89613
13  1  1  -0.1587  -9.745  -1.00313   9.31677
14  1  1  -0.1571  -9.928  -2.43508   9.81401
15  1  1  -0.1612  -10.491  -2.46029   11.23393
16  1  1  -0.136  -10.671  -3.89793   11.7195
17  1  1  -0.2333  -11.233  -3.94269   13.13504
18  1  3   0.4286  -11.446  -5.35225   13.69766
19  1  4  -0.6309  -11.139  -6.31568   12.94377
20  1  4  -0.6309  -11.915  -5.36861   14.87284
21  1  5   0.0698   1.378   0.9987  -1.02667
22  1  5   0.0698   1.39   0.11357   0.50956
23  1  5   0.0698   1.39   1.88944   0.50558
24  1  5   0.0767  -0.88   0.11633  -0.53977
25  1  5   0.0767  -0.881   1.88273  -0.54062
26  1  5   0.0789  -0.708   1.88487   1.95968
27  1  5   0.0789  -0.706   0.1183   1.9613
28  1  5   0.0774  -2.968   0.11477   0.88492
29  1  5   0.0774  -2.97   1.88113   0.88523
30  1  5   0.0793  -2.783   1.88029   3.38312
31  1  5   0.0793  -2.781   0.11367   3.38393
32  1  5   0.0772  -5.044   0.11299   2.30878
33  1  5   0.0772  -5.042   1.88063   2.31156
34  1  5   0.0814  -4.823   1.85432   4.81936
35  1  5   0.0814  -4.889   0.0903   4.79756
36  1  5   0.0816  -7.154   0.2118   3.69459
37  1  5   0.0816  -7.075   1.97985   3.76624
38  1  5   0.1192  -6.729   1.58234   6.42294
39  1  5   0.1165  -9.029  -0.07438   5.2425
40  1  5   0.0823  -9.967   0.96352   7.3914
41  1  5   0.0823  -8.341   0.99198   8.0775
42  1  5   0.0794  -8.222  -1.51513   7.87469
43  1  5   0.0794  -9.864  -1.5306   7.2267
44  1  5   0.0735  -10.708  -0.4782   9.33761
45  1  5   0.0735  -9.065  -0.46342   9.98671
46  1  5   0.0759  -8.964  -2.9575   9.7893
47  1  5   0.0759  -10.606  -2.97268   9.13956
48  1  5   0.0652  -11.455  -1.93813   11.25674
49  1  5   0.0652  -9.812  -1.92368   11.90805
50  1  5   0.0794  -9.704  -4.4168   11.68843
51  1  5   0.0794  -11.344  -4.4315   11.03736
52  1  5   0.0589  -12.199  -3.42293   13.16122
53  1  5   0.0589  -10.555  -3.41084   13.81395

Bonds

1  1  2  1
2  1  3  2
3  1  4  3
4  1  5  4
5  1  6  5
6  1  7  6
7  1  8  7
8  2  9  8
9  3  10  9
10  2  11  10
11  1  12  11
12  1  13  12
13  1  14  13
14  1  15  14
15  1  16  15
16  1  17  16
17  4  18  17
18  5  19  18
19  5  20  18
20  6  21  1
21  6  22  1
22  6  23  1
23  6  24  2
24  6  25  2
25  6  26  3
26  6  27  3
27  6  28  4
28  6  29  4
29  6  30  5
30  6  31  5
31  6  32  6
32  6  33  6
33  6  34  7
34  6  35  7
35  6  36  8
36  6  37  8
37  7  38  9
38  7  39  10
39  6  40  11
40  6  41  11
41  6  42  12
42  6  43  12
43  6  44  13
44  6  45  13
45  6  46  14
46  6  47  14
47  6  48  15
48  6  49  15
49  6  50  16
50  6  51  16
51  6  52  17
52  6  53  17

Angles

1  1  1  2  3
2  1  2  3  4
3  1  3  4  5
4  1  4  5  6
5  1  5  6  7
6  1  6  7  8
7  2  7  8  9
8  3  8  9  10
9  3  9  10  11
10  2  10  11  12
11  1  11  12  13
12  1  12  13  14
13  1  13  14  15
14  1  14  15  16
15  1  15  16  17
16  2  16  17  18
17  4  17  18  19
18  4  17  18  20
19  5  2  1  21
20  5  2  1  22
21  5  2  1  23
22  5  1  2  24
23  5  1  2  25
24  5  2  3  26
25  5  2  3  27
26  5  3  4  28
27  5  3  4  29
28  5  4  5  30
29  5  4  5  31
30  5  5  6  32
31  5  5  6  33
32  5  6  7  34
33  5  6  7  35
34  5  7  8  36
35  5  7  8  37
36  6  8  9  38
37  7  9  10  39
38  8  10  11  40
39  8  10  11  41
40  5  11  12  42
41  5  11  12  43
42  5  12  13  44
43  5  12  13  45
44  5  13  14  46
45  5  13  14  47
46  5  14  15  48
47  5  14  15  49
48  5  15  16  50
49  5  15  16  51
50  5  16  17  52
51  5  16  17  53
52  5  15  14  47
53  8  9  8  36
54  5  16  15  49
55  9  46  14  47
56  5  17  16  50
57  5  7  6  32
58  9  21  1  23
59  5  3  2  25
60  5  14  13  45
61  5  5  4  28
62  9  50  16  51
63  8  9  8  37
64  5  15  14  46
65  9  48  15  49
66  5  13  12  42
67  5  6  5  31
68  9  42  12  43
69  9  44  13  45
70  9  32  6  33
71  9  36  8  37
72  5  8  7  35
73  5  6  5  30
74  9  24  2  25
75  9  21  1  22
76  8  18  17  52
77  10  19  18  20
78  5  4  3  27
79  5  13  12  43
80  5  4  3  26
81  5  8  7  34
82  8  18  17  53
83  9  34  7  35
84  5  5  4  29
85  9  52  17  53
86  5  16  15  48
87  9  26  3  27
88  6  11  10  39
89  7  10  9  38
90  9  22  1  23
91  9  28  4  29
92  5  12  11  40
93  9  40  11  41
94  5  3  2  24
95  5  7  6  33
96  5  17  16  51
97  9  30  5  31
98  5  12  11  41
99  5  14  13  44

Dihedrals

1  1  4  3  2  1
2  1  5  4  3  2
3  1  6  5  4  3
4  1  7  6  5  4
5  1  8  7  6  5
6  1  9  8  7  6
7  2  10  9  8  7
8  3  11  10  9  8
9  2  12  11  10  9
10  1  13  12  11  10
11  1  14  13  12  11
12  1  15  14  13  12
13  1  16  15  14  13
14  1  17  16  15  14
15  4  18  17  16  15
16  5  19  18  17  16
17  6  21  1  2  3
18  6  27  3  4  5
19  6  50  16  15  48
20  6  28  4  3  2
21  6  47  14  13  45
22  7  35  7  8  9
23  6  48  15  14  47
24  6  49  15  14  46
25  8  51  16  17  18
26  6  29  4  3  26
27  6  28  4  3  27
28  9  38  9  8  7
29  6  53  17  16  51
30  6  23  1  2  3
31  6  48  15  16  17
32  6  51  16  15  14
33  6  45  13  14  15
34  6  53  17  16  15
35  8  50  16  17  18
36  3  38  9  10  11
37  6  45  13  12  42
38  6  26  3  2  1
39  6  46  14  13  45
40  6  47  14  13  44
41  6  35  7  6  5
42  6  32  6  7  8
43  6  32  6  5  30
44  6  43  12  11  40
45  6  42  12  11  41
46  6  31  5  4  29
47  6  45  13  12  11
48  6  24  2  1  22
49  6  30  5  4  29
50  6  31  5  4  28
51  6  25  2  1  23
52  10  36  8  9  10
53  6  30  5  4  3
54  6  26  3  2  25
55  6  27  3  2  24
56  6  37  8  7  6
57  7  34  7  8  9
58  6  22  1  2  3
59  6  37  8  7  35
60  6  40  11  12  13
61  6  44  13  12  43
62  7  43  12  11  10
63  5  20  18  17  16
64  3  39  10  9  8
65  6  25  2  1  21
66  11  40  11  10  39
67  6  29  4  3  2
68  6  49  15  16  17
69  6  47  14  13  12
70  6  44  13  14  15
71  6  29  4  5  6
72  6  52  17  16  15
73  6  36  8  7  35
74  6  37  8  7  34
75  6  35  7  6  33
76  6  45  13  12  43
77  6  48  15  14  46
78  6  48  15  14  13
79  6  33  6  5  30
80  6  42  12  11  40
81  6  27  3  2  1
82  6  24  2  3  4
83  6  31  5  4  3
84  6  47  14  15  16
85  6  28  4  5  6
86  6  33  6  5  4
87  6  30  5  6  7
88  11  41  11  10  39
89  6  24  2  1  21
90  6  42  12  13  14
91  6  34  7  6  5
92  6  34  7  6  32
93  6  32  6  5  4
94  6  49  15  14  13
95  5  53  17  18  20
96  6  33  6  5  31
97  6  43  12  11  41
98  6  50  16  15  14
99  6  31  5  6  7
100  3  39  10  9  38
101  6  26  3  2  24
102  7  42  12  11  10
103  6  53  17  16  50
104  6  51  16  15  49
105  6  36  8  7  6
106  11  38  9  8  37
107  6  50  16  15  49
108  6  51  16  15  48
109  6  24  2  1  23
110  6  25  2  1  22
111  6  49  15  14  47
112  6  43  12  13  14
113  6  35  7  6  32
114  6  34  7  6  33
115  6  26  3  4  5
116  5  52  17  18  19
117  9  39  10  11  12
118  6  29  4  3  27
119  6  36  8  7  34
120  6  44  13  12  42
121  6  30  5  4  28
122  10  40  11  10  9
123  6  25  2  3  4
124  6  33  6  7  8
125  6  32  6  5  31
126  6  28  4  3  26
127  6  44  13  12  11
128  6  52  17  16  50
129  6  27  3  2  25
130  11  38  9  8  36
131  10  37  8  9  10
132  6  46  14  13  12
133  6  46  14  15  16
134  6  46  14  13  44
135  10  41  11  10  9
136  6  41  11  12  13
137  6  52  17  16  51
138  5  53  17  18  19
139  5  52  17  18  20

Impropers

1  1  18  17  19  20
2  2  1  2  21  22
3  2  1  2  21  23
4  2  2  1  3  24
5  2  2  25  3  1
6  2  3  26  4  2
7  2  3  2  27  4
8  2  4  3  28  5
9  2  4  5  3  29
10  2  5  4  30  6
11  2  5  4  6  31
12  2  6  5  7  32
13  2  6  33  5  7
14  2  7  34  6  8
15  2  7  35  6  8
16  2  8  9  36  7
17  2  8  9  37  7
18  3  9  10  38  8
19  3  10  9  11  39
20  2  11  10  12  40
21  2  11  41  10  12
22  2  12  42  11  13
23  2  12  43  13  11
24  2  13  12  44  14
25  2  13  12  45  14
26  2  14  13  46  15
27  2  14  15  13  47
28  2  15  16  14  48
29  2  15  49  14  16
30  2  16  17  50  15
31  2  16  17  51  15
32  2  17  18  52  16
33  2  17  18  53  16
