LAMMPS data file Created by LigParGen - (Written by Leela S. Dodda)

      53 atoms
      52 bonds
      99 angles
     139 dihedrals
      33 impropers
 
      53 atom types
      52 bond types
      99 angle types
     139 dihedral types
      33 improper types
 
  -12.199210    37.800790 xlo xhi
   -6.315680    43.684320 ylo yhi
   -1.026670    48.973330 zlo zhi

Masses

       1     12.011  
       2     12.011  
       3     12.011  
       4     12.011  
       5     12.011  
       6     12.011  
       7     12.011  
       8     12.011  
       9     12.011  
      10     12.011  
      11     12.011  
      12     12.011  
      13     12.011  
      14     12.011  
      15     12.011  
      16     12.011  
      17     12.011  
      18     12.011  
      19     15.999  
      20     15.999  
      21      1.008  
      22      1.008  
      23      1.008  
      24      1.008  
      25      1.008  
      26      1.008  
      27      1.008  
      28      1.008  
      29      1.008  
      30      1.008  
      31      1.008  
      32      1.008  
      33      1.008  
      34      1.008  
      35      1.008  
      36      1.008  
      37      1.008  
      38      1.008  
      39      1.008  
      40      1.008  
      41      1.008  
      42      1.008  
      43      1.008  
      44      1.008  
      45      1.008  
      46      1.008  
      47      1.008  
      48      1.008  
      49      1.008  
      50      1.008  
      51      1.008  
      52      1.008  
      53      1.008  

Pair Coeffs 

       1      0.066  3.5000000 
       2      0.066  3.5000000 
       3      0.066  3.5000000 
       4      0.066  3.5000000 
       5      0.066  3.5000000 
       6      0.066  3.5000000 
       7      0.066  3.5000000 
       8      0.066  3.5000000 
       9      0.076  3.5500000 
      10      0.076  3.5500000 
      11      0.066  3.5000000 
      12      0.066  3.5000000 
      13      0.066  3.5000000 
      14      0.066  3.5000000 
      15      0.066  3.5000000 
      16      0.066  3.5000000 
      17      0.066  3.5000000 
      18      0.070  3.5500000 
      19      0.210  2.9600000 
      20      0.210  2.9600000 
      21      0.030  2.5000000 
      22      0.030  2.5000000 
      23      0.030  2.5000000 
      24      0.030  2.5000000 
      25      0.030  2.5000000 
      26      0.030  2.5000000 
      27      0.030  2.5000000 
      28      0.030  2.5000000 
      29      0.030  2.5000000 
      30      0.030  2.5000000 
      31      0.030  2.5000000 
      32      0.030  2.5000000 
      33      0.030  2.5000000 
      34      0.030  2.5000000 
      35      0.030  2.5000000 
      36      0.030  2.5000000 
      37      0.030  2.5000000 
      38      0.030  2.5000000 
      39      0.030  2.5000000 
      40      0.030  2.5000000 
      41      0.030  2.5000000 
      42      0.030  2.5000000 
      43      0.030  2.5000000 
      44      0.030  2.5000000 
      45      0.030  2.5000000 
      46      0.030  2.5000000 
      47      0.030  2.5000000 
      48      0.030  2.5000000 
      49      0.030  2.5000000 
      50      0.030  2.5000000 
      51      0.030  2.5000000 
      52      0.030  2.5000000 
      53      0.030  2.5000000 

Bond Coeffs 

       1   268.0000     1.5290 
       2   268.0000     1.5290 
       3   268.0000     1.5290 
       4   268.0000     1.5290 
       5   268.0000     1.5290 
       6   268.0000     1.5290 
       7   268.0000     1.5290 
       8   317.0000     1.5100 
       9   549.0000     1.3400 
      10   317.0000     1.5100 
      11   268.0000     1.5290 
      12   268.0000     1.5290 
      13   268.0000     1.5290 
      14   268.0000     1.5290 
      15   268.0000     1.5290 
      16   268.0000     1.5290 
      17   317.0000     1.5220 
      18   656.0000     1.2500 
      19   656.0000     1.2500 
      20   340.0000     1.0900 
      21   340.0000     1.0900 
      22   340.0000     1.0900 
      23   340.0000     1.0900 
      24   340.0000     1.0900 
      25   340.0000     1.0900 
      26   340.0000     1.0900 
      27   340.0000     1.0900 
      28   340.0000     1.0900 
      29   340.0000     1.0900 
      30   340.0000     1.0900 
      31   340.0000     1.0900 
      32   340.0000     1.0900 
      33   340.0000     1.0900 
      34   340.0000     1.0900 
      35   340.0000     1.0900 
      36   340.0000     1.0900 
      37   340.0000     1.0800 
      38   340.0000     1.0800 
      39   340.0000     1.0900 
      40   340.0000     1.0900 
      41   340.0000     1.0900 
      42   340.0000     1.0900 
      43   340.0000     1.0900 
      44   340.0000     1.0900 
      45   340.0000     1.0900 
      46   340.0000     1.0900 
      47   340.0000     1.0900 
      48   340.0000     1.0900 
      49   340.0000     1.0900 
      50   340.0000     1.0900 
      51   340.0000     1.0900 
      52   340.0000     1.0900 

Angle Coeffs 

       1     58.350    112.700
       2     58.350    112.700
       3     58.350    112.700
       4     58.350    112.700
       5     58.350    112.700
       6     58.350    112.700
       7     63.000    111.100
       8     70.000    124.000
       9     70.000    124.000
      10     63.000    111.100
      11     58.350    112.700
      12     58.350    112.700
      13     58.350    112.700
      14     58.350    112.700
      15     58.350    112.700
      16     63.000    111.100
      17     70.000    117.000
      18     70.000    117.000
      19     37.500    110.700
      20     37.500    110.700
      21     37.500    110.700
      22     37.500    110.700
      23     37.500    110.700
      24     37.500    110.700
      25     37.500    110.700
      26     37.500    110.700
      27     37.500    110.700
      28     37.500    110.700
      29     37.500    110.700
      30     37.500    110.700
      31     37.500    110.700
      32     37.500    110.700
      33     37.500    110.700
      34     37.500    110.700
      35     37.500    110.700
      36     35.000    117.000
      37     35.000    120.000
      38     35.000    109.500
      39     35.000    109.500
      40     37.500    110.700
      41     37.500    110.700
      42     37.500    110.700
      43     37.500    110.700
      44     37.500    110.700
      45     37.500    110.700
      46     37.500    110.700
      47     37.500    110.700
      48     37.500    110.700
      49     37.500    110.700
      50     37.500    110.700
      51     37.500    110.700
      52     37.500    110.700
      53     35.000    109.500
      54     37.500    110.700
      55     33.000    107.800
      56     37.500    110.700
      57     37.500    110.700
      58     33.000    107.800
      59     37.500    110.700
      60     37.500    110.700
      61     37.500    110.700
      62     33.000    107.800
      63     35.000    109.500
      64     37.500    110.700
      65     33.000    107.800
      66     37.500    110.700
      67     37.500    110.700
      68     33.000    107.800
      69     33.000    107.800
      70     33.000    107.800
      71     33.000    107.800
      72     37.500    110.700
      73     37.500    110.700
      74     33.000    107.800
      75     33.000    107.800
      76     35.000    109.500
      77     80.000    126.000
      78     37.500    110.700
      79     37.500    110.700
      80     37.500    110.700
      81     37.500    110.700
      82     35.000    109.500
      83     33.000    107.800
      84     37.500    110.700
      85     33.000    107.800
      86     37.500    110.700
      87     33.000    107.800
      88     35.000    117.000
      89     35.000    120.000
      90     33.000    107.800
      91     33.000    107.800
      92     37.500    110.700
      93     33.000    107.800
      94     37.500    110.700
      95     37.500    110.700
      96     37.500    110.700
      97     33.000    107.800
      98     37.500    110.700
      99     37.500    110.700

Dihedral Coeffs  

       1      1.300     -0.200      0.200      0.000 
       2      1.300     -0.200      0.200      0.000 
       3      1.300     -0.200      0.200      0.000 
       4      1.300     -0.200      0.200      0.000 
       5      1.300     -0.200      0.200      0.000 
       6      1.300     -0.200      0.200      0.000 
       7      0.346      0.405     -0.904      0.000 
       8      0.000     14.000      0.000      0.000 
       9      0.346      0.405     -0.904      0.000 
      10      1.300     -0.200      0.200      0.000 
      11      1.300     -0.200      0.200      0.000 
      12      1.300     -0.200      0.200      0.000 
      13      1.300     -0.200      0.200      0.000 
      14      1.300     -0.200      0.200      0.000 
      15     -2.060     -0.313      0.315      0.000 
      16      0.000      0.000      0.000      0.000 
      17      0.000      0.000      0.300      0.000 
      18      0.000      0.000      0.300      0.000 
      19      0.000      0.000      0.300      0.000 
      20      0.000      0.000      0.300      0.000 
      21      0.000      0.000      0.300      0.000 
      22      0.000      0.000      0.366      0.000 
      23      0.000      0.000      0.300      0.000 
      24      0.000      0.000      0.300      0.000 
      25      0.000      0.000     -0.100      0.000 
      26      0.000      0.000      0.300      0.000 
      27      0.000      0.000      0.300      0.000 
      28      0.000     -8.000      0.000      0.000 
      29      0.000      0.000      0.300      0.000 
      30      0.000      0.000      0.300      0.000 
      31      0.000      0.000      0.300      0.000 
      32      0.000      0.000      0.300      0.000 
      33      0.000      0.000      0.300      0.000 
      34      0.000      0.000      0.300      0.000 
      35      0.000      0.000     -0.100      0.000 
      36      0.000     14.000      0.000      0.000 
      37      0.000      0.000      0.300      0.000 
      38      0.000      0.000      0.300      0.000 
      39      0.000      0.000      0.300      0.000 
      40      0.000      0.000      0.300      0.000 
      41      0.000      0.000      0.300      0.000 
      42      0.000      0.000      0.300      0.000 
      43      0.000      0.000      0.300      0.000 
      44      0.000      0.000      0.300      0.000 
      45      0.000      0.000      0.300      0.000 
      46      0.000      0.000      0.300      0.000 
      47      0.000      0.000      0.300      0.000 
      48      0.000      0.000      0.300      0.000 
      49      0.000      0.000      0.300      0.000 
      50      0.000      0.000      0.300      0.000 
      51      0.000      0.000      0.300      0.000 
      52      0.000      0.000     -0.372      0.000 
      53      0.000      0.000      0.300      0.000 
      54      0.000      0.000      0.300      0.000 
      55      0.000      0.000      0.300      0.000 
      56      0.000      0.000      0.300      0.000 
      57      0.000      0.000      0.366      0.000 
      58      0.000      0.000      0.300      0.000 
      59      0.000      0.000      0.300      0.000 
      60      0.000      0.000      0.300      0.000 
      61      0.000      0.000      0.300      0.000 
      62      0.000      0.000      0.366      0.000 
      63      0.000      0.000      0.000      0.000 
      64      0.000     14.000      0.000      0.000 
      65      0.000      0.000      0.300      0.000 
      66      0.000      0.000      0.318      0.000 
      67      0.000      0.000      0.300      0.000 
      68      0.000      0.000      0.300      0.000 
      69      0.000      0.000      0.300      0.000 
      70      0.000      0.000      0.300      0.000 
      71      0.000      0.000      0.300      0.000 
      72      0.000      0.000      0.300      0.000 
      73      0.000      0.000      0.300      0.000 
      74      0.000      0.000      0.300      0.000 
      75      0.000      0.000      0.300      0.000 
      76      0.000      0.000      0.300      0.000 
      77      0.000      0.000      0.300      0.000 
      78      0.000      0.000      0.300      0.000 
      79      0.000      0.000      0.300      0.000 
      80      0.000      0.000      0.300      0.000 
      81      0.000      0.000      0.300      0.000 
      82      0.000      0.000      0.300      0.000 
      83      0.000      0.000      0.300      0.000 
      84      0.000      0.000      0.300      0.000 
      85      0.000      0.000      0.300      0.000 
      86      0.000      0.000      0.300      0.000 
      87      0.000      0.000      0.300      0.000 
      88      0.000      0.000      0.318      0.000 
      89      0.000      0.000      0.300      0.000 
      90      0.000      0.000      0.300      0.000 
      91      0.000      0.000      0.300      0.000 
      92      0.000      0.000      0.300      0.000 
      93      0.000      0.000      0.300      0.000 
      94      0.000      0.000      0.300      0.000 
      95      0.000      0.000      0.000      0.000 
      96      0.000      0.000      0.300      0.000 
      97      0.000      0.000      0.300      0.000 
      98      0.000      0.000      0.300      0.000 
      99      0.000      0.000      0.300      0.000 
     100      0.000     14.000      0.000      0.000 
     101      0.000      0.000      0.300      0.000 
     102      0.000      0.000      0.366      0.000 
     103      0.000      0.000      0.300      0.000 
     104      0.000      0.000      0.300      0.000 
     105      0.000      0.000      0.300      0.000 
     106      0.000      0.000      0.318      0.000 
     107      0.000      0.000      0.300      0.000 
     108      0.000      0.000      0.300      0.000 
     109      0.000      0.000      0.300      0.000 
     110      0.000      0.000      0.300      0.000 
     111      0.000      0.000      0.300      0.000 
     112      0.000      0.000      0.300      0.000 
     113      0.000      0.000      0.300      0.000 
     114      0.000      0.000      0.300      0.000 
     115      0.000      0.000      0.300      0.000 
     116      0.000      0.000      0.000      0.000 
     117      0.000     -8.000      0.000      0.000 
     118      0.000      0.000      0.300      0.000 
     119      0.000      0.000      0.300      0.000 
     120      0.000      0.000      0.300      0.000 
     121      0.000      0.000      0.300      0.000 
     122      0.000      0.000     -0.372      0.000 
     123      0.000      0.000      0.300      0.000 
     124      0.000      0.000      0.300      0.000 
     125      0.000      0.000      0.300      0.000 
     126      0.000      0.000      0.300      0.000 
     127      0.000      0.000      0.300      0.000 
     128      0.000      0.000      0.300      0.000 
     129      0.000      0.000      0.300      0.000 
     130      0.000      0.000      0.318      0.000 
     131      0.000      0.000     -0.372      0.000 
     132      0.000      0.000      0.300      0.000 
     133      0.000      0.000      0.300      0.000 
     134      0.000      0.000      0.300      0.000 
     135      0.000      0.000     -0.372      0.000 
     136      0.000      0.000      0.300      0.000 
     137      0.000      0.000      0.300      0.000 
     138      0.000      0.000      0.000      0.000 
     139      0.000      0.000      0.000      0.000 

Improper Coeffs 

       1     10.500      -1       2 
       2      0.000      -1       2 
       3      0.000      -1       2 
       4      0.000      -1       2 
       5      0.000      -1       2 
       6      0.000      -1       2 
       7      0.000      -1       2 
       8      0.000      -1       2 
       9      0.000      -1       2 
      10      0.000      -1       2 
      11      0.000      -1       2 
      12      0.000      -1       2 
      13      0.000      -1       2 
      14      0.000      -1       2 
      15      0.000      -1       2 
      16      0.000      -1       2 
      17      0.000      -1       2 
      18      2.500      -1       2 
      19      2.500      -1       2 
      20      0.000      -1       2 
      21      0.000      -1       2 
      22      0.000      -1       2 
      23      0.000      -1       2 
      24      0.000      -1       2 
      25      0.000      -1       2 
      26      0.000      -1       2 
      27      0.000      -1       2 
      28      0.000      -1       2 
      29      0.000      -1       2 
      30      0.000      -1       2 
      31      0.000      -1       2 
      32      0.000      -1       2 
      33      0.000      -1       2 

Atoms 

     1      1      1 -0.20920000    1.000  1.00000  0.00000
     2      1      2 -0.15750000   -0.520  1.00000  0.00000
     3      1      3 -0.15670000   -1.073  1.00000  1.42303
     4      1      4 -0.15740000   -2.601  0.99820  1.42140
     5      1      5 -0.15750000   -3.150  0.99640  2.84781
     6      1      6 -0.15780000   -4.678  0.99640  2.84617
     7      1      7 -0.15490000   -5.227  0.99280  4.27197
     8      1      8 -0.12300000   -6.754  1.05847  4.26613
     9      1      9 -0.18490000   -7.303  1.05723  5.66174
    10      1     10 -0.15730000   -8.449  0.44874  6.00038
    11      1     11 -0.12940000   -9.002  0.44325  7.39530
    12      1     12 -0.15410000   -9.184 -0.98776  7.89613
    13      1     13 -0.15870000   -9.745 -1.00313  9.31677
    14      1     14 -0.15710000   -9.928 -2.43508  9.81401
    15      1     15 -0.16120000  -10.491 -2.46029 11.23393
    16      1     16 -0.13600000  -10.671 -3.89793 11.71950
    17      1     17 -0.23330000  -11.233 -3.94269 13.13504
    18      1     18 0.42860000  -11.446 -5.35225 13.69766
    19      1     19 -0.63090000  -11.139 -6.31568 12.94377
    20      1     20 -0.63090000  -11.915 -5.36861 14.87284
    21      1     21 0.06980000    1.378  0.99870 -1.02667
    22      1     22 0.06980000    1.390  0.11357  0.50956
    23      1     23 0.06980000    1.390  1.88944  0.50558
    24      1     24 0.07670000   -0.880  0.11633 -0.53977
    25      1     25 0.07670000   -0.881  1.88273 -0.54062
    26      1     26 0.07890000   -0.708  1.88487  1.95968
    27      1     27 0.07890000   -0.706  0.11830  1.96130
    28      1     28 0.07740000   -2.968  0.11477  0.88492
    29      1     29 0.07740000   -2.970  1.88113  0.88523
    30      1     30 0.07930000   -2.783  1.88029  3.38312
    31      1     31 0.07930000   -2.781  0.11367  3.38393
    32      1     32 0.07720000   -5.044  0.11299  2.30878
    33      1     33 0.07720000   -5.042  1.88063  2.31156
    34      1     34 0.08140000   -4.823  1.85432  4.81936
    35      1     35 0.08140000   -4.889  0.09030  4.79756
    36      1     36 0.08160000   -7.154  0.21180  3.69459
    37      1     37 0.08160000   -7.075  1.97985  3.76624
    38      1     38 0.11920000   -6.729  1.58234  6.42294
    39      1     39 0.11650000   -9.029 -0.07438  5.24250
    40      1     40 0.08230000   -9.967  0.96352  7.39140
    41      1     41 0.08230000   -8.341  0.99198  8.07750
    42      1     42 0.07940000   -8.222 -1.51513  7.87469
    43      1     43 0.07940000   -9.864 -1.53060  7.22670
    44      1     44 0.07350000  -10.708 -0.47820  9.33761
    45      1     45 0.07350000   -9.065 -0.46342  9.98671
    46      1     46 0.07590000   -8.964 -2.95750  9.78930
    47      1     47 0.07590000  -10.606 -2.97268  9.13956
    48      1     48 0.06520000  -11.455 -1.93813 11.25674
    49      1     49 0.06520000   -9.812 -1.92368 11.90805
    50      1     50 0.07940000   -9.704 -4.41680 11.68843
    51      1     51 0.07940000  -11.344 -4.43150 11.03736
    52      1     52 0.05890000  -12.199 -3.42293 13.16122
    53      1     53 0.05890000  -10.555 -3.41084 13.81395

Bonds 

     1      1      2      1
     2      2      3      2
     3      3      4      3
     4      4      5      4
     5      5      6      5
     6      6      7      6
     7      7      8      7
     8      8      9      8
     9      9     10      9
    10     10     11     10
    11     11     12     11
    12     12     13     12
    13     13     14     13
    14     14     15     14
    15     15     16     15
    16     16     17     16
    17     17     18     17
    18     18     19     18
    19     19     20     18
    20     20     21      1
    21     21     22      1
    22     22     23      1
    23     23     24      2
    24     24     25      2
    25     25     26      3
    26     26     27      3
    27     27     28      4
    28     28     29      4
    29     29     30      5
    30     30     31      5
    31     31     32      6
    32     32     33      6
    33     33     34      7
    34     34     35      7
    35     35     36      8
    36     36     37      8
    37     37     38      9
    38     38     39     10
    39     39     40     11
    40     40     41     11
    41     41     42     12
    42     42     43     12
    43     43     44     13
    44     44     45     13
    45     45     46     14
    46     46     47     14
    47     47     48     15
    48     48     49     15
    49     49     50     16
    50     50     51     16
    51     51     52     17
    52     52     53     17

Angles 

     1      1      1      2      3
     2      2      2      3      4
     3      3      3      4      5
     4      4      4      5      6
     5      5      5      6      7
     6      6      6      7      8
     7      7      7      8      9
     8      8      8      9     10
     9      9      9     10     11
    10     10     10     11     12
    11     11     11     12     13
    12     12     12     13     14
    13     13     13     14     15
    14     14     14     15     16
    15     15     15     16     17
    16     16     16     17     18
    17     17     17     18     19
    18     18     17     18     20
    19     19      2      1     21
    20     20      2      1     22
    21     21      2      1     23
    22     22      1      2     24
    23     23      1      2     25
    24     24      2      3     26
    25     25      2      3     27
    26     26      3      4     28
    27     27      3      4     29
    28     28      4      5     30
    29     29      4      5     31
    30     30      5      6     32
    31     31      5      6     33
    32     32      6      7     34
    33     33      6      7     35
    34     34      7      8     36
    35     35      7      8     37
    36     36      8      9     38
    37     37      9     10     39
    38     38     10     11     40
    39     39     10     11     41
    40     40     11     12     42
    41     41     11     12     43
    42     42     12     13     44
    43     43     12     13     45
    44     44     13     14     46
    45     45     13     14     47
    46     46     14     15     48
    47     47     14     15     49
    48     48     15     16     50
    49     49     15     16     51
    50     50     16     17     52
    51     51     16     17     53
    52     52     15     14     47
    53     53      9      8     36
    54     54     16     15     49
    55     55     46     14     47
    56     56     17     16     50
    57     57      7      6     32
    58     58     21      1     23
    59     59      3      2     25
    60     60     14     13     45
    61     61      5      4     28
    62     62     50     16     51
    63     63      9      8     37
    64     64     15     14     46
    65     65     48     15     49
    66     66     13     12     42
    67     67      6      5     31
    68     68     42     12     43
    69     69     44     13     45
    70     70     32      6     33
    71     71     36      8     37
    72     72      8      7     35
    73     73      6      5     30
    74     74     24      2     25
    75     75     21      1     22
    76     76     18     17     52
    77     77     19     18     20
    78     78      4      3     27
    79     79     13     12     43
    80     80      4      3     26
    81     81      8      7     34
    82     82     18     17     53
    83     83     34      7     35
    84     84      5      4     29
    85     85     52     17     53
    86     86     16     15     48
    87     87     26      3     27
    88     88     11     10     39
    89     89     10      9     38
    90     90     22      1     23
    91     91     28      4     29
    92     92     12     11     40
    93     93     40     11     41
    94     94      3      2     24
    95     95      7      6     33
    96     96     17     16     51
    97     97     30      5     31
    98     98     12     11     41
    99     99     14     13     44

Dihedrals

     1      1      4      3      2      1 
     2      2      5      4      3      2 
     3      3      6      5      4      3 
     4      4      7      6      5      4 
     5      5      8      7      6      5 
     6      6      9      8      7      6 
     7      7     10      9      8      7 
     8      8     11     10      9      8 
     9      9     12     11     10      9 
    10     10     13     12     11     10 
    11     11     14     13     12     11 
    12     12     15     14     13     12 
    13     13     16     15     14     13 
    14     14     17     16     15     14 
    15     15     18     17     16     15 
    16     16     19     18     17     16 
    17     17     21      1      2      3 
    18     18     27      3      4      5 
    19     19     50     16     15     48 
    20     20     28      4      3      2 
    21     21     47     14     13     45 
    22     22     35      7      8      9 
    23     23     48     15     14     47 
    24     24     49     15     14     46 
    25     25     51     16     17     18 
    26     26     29      4      3     26 
    27     27     28      4      3     27 
    28     28     38      9      8      7 
    29     29     53     17     16     51 
    30     30     23      1      2      3 
    31     31     48     15     16     17 
    32     32     51     16     15     14 
    33     33     45     13     14     15 
    34     34     53     17     16     15 
    35     35     50     16     17     18 
    36     36     38      9     10     11 
    37     37     45     13     12     42 
    38     38     26      3      2      1 
    39     39     46     14     13     45 
    40     40     47     14     13     44 
    41     41     35      7      6      5 
    42     42     32      6      7      8 
    43     43     32      6      5     30 
    44     44     43     12     11     40 
    45     45     42     12     11     41 
    46     46     31      5      4     29 
    47     47     45     13     12     11 
    48     48     24      2      1     22 
    49     49     30      5      4     29 
    50     50     31      5      4     28 
    51     51     25      2      1     23 
    52     52     36      8      9     10 
    53     53     30      5      4      3 
    54     54     26      3      2     25 
    55     55     27      3      2     24 
    56     56     37      8      7      6 
    57     57     34      7      8      9 
    58     58     22      1      2      3 
    59     59     37      8      7     35 
    60     60     40     11     12     13 
    61     61     44     13     12     43 
    62     62     43     12     11     10 
    63     63     20     18     17     16 
    64     64     39     10      9      8 
    65     65     25      2      1     21 
    66     66     40     11     10     39 
    67     67     29      4      3      2 
    68     68     49     15     16     17 
    69     69     47     14     13     12 
    70     70     44     13     14     15 
    71     71     29      4      5      6 
    72     72     52     17     16     15 
    73     73     36      8      7     35 
    74     74     37      8      7     34 
    75     75     35      7      6     33 
    76     76     45     13     12     43 
    77     77     48     15     14     46 
    78     78     48     15     14     13 
    79     79     33      6      5     30 
    80     80     42     12     11     40 
    81     81     27      3      2      1 
    82     82     24      2      3      4 
    83     83     31      5      4      3 
    84     84     47     14     15     16 
    85     85     28      4      5      6 
    86     86     33      6      5      4 
    87     87     30      5      6      7 
    88     88     41     11     10     39 
    89     89     24      2      1     21 
    90     90     42     12     13     14 
    91     91     34      7      6      5 
    92     92     34      7      6     32 
    93     93     32      6      5      4 
    94     94     49     15     14     13 
    95     95     53     17     18     20 
    96     96     33      6      5     31 
    97     97     43     12     11     41 
    98     98     50     16     15     14 
    99     99     31      5      6      7 
   100    100     39     10      9     38 
   101    101     26      3      2     24 
   102    102     42     12     11     10 
   103    103     53     17     16     50 
   104    104     51     16     15     49 
   105    105     36      8      7      6 
   106    106     38      9      8     37 
   107    107     50     16     15     49 
   108    108     51     16     15     48 
   109    109     24      2      1     23 
   110    110     25      2      1     22 
   111    111     49     15     14     47 
   112    112     43     12     13     14 
   113    113     35      7      6     32 
   114    114     34      7      6     33 
   115    115     26      3      4      5 
   116    116     52     17     18     19 
   117    117     39     10     11     12 
   118    118     29      4      3     27 