LAMMPS data file Created by LigParGen - (Written by Leela S. Dodda)

      54 atoms
      53 bonds
     100 angles
     141 dihedrals
      33 impropers
 
      54 atom types
      53 bond types
     100 angle types
     141 dihedral types
      33 improper types
 
  -12.196220    37.803780 xlo xhi
   -6.342220    43.657780 ylo yhi
   -1.026890    48.973110 zlo zhi

Masses

       1     12.011  
       2     12.011  
       3     12.011  
       4     12.011  
       5     12.011  
       6     12.011  
       7     12.011  
       8     12.011  
       9     12.011  
      10     12.011  
      11     12.011  
      12     12.011  
      13     12.011  
      14     12.011  
      15     12.011  
      16     12.011  
      17     12.011  
      18     12.011  
      19     15.999  
      20     15.999  
      21      1.008  
      22      1.008  
      23      1.008  
      24      1.008  
      25      1.008  
      26      1.008  
      27      1.008  
      28      1.008  
      29      1.008  
      30      1.008  
      31      1.008  
      32      1.008  
      33      1.008  
      34      1.008  
      35      1.008  
      36      1.008  
      37      1.008  
      38      1.008  
      39      1.008  
      40      1.008  
      41      1.008  
      42      1.008  
      43      1.008  
      44      1.008  
      45      1.008  
      46      1.008  
      47      1.008  
      48      1.008  
      49      1.008  
      50      1.008  
      51      1.008  
      52      1.008  
      53      1.008  
      54      1.008  

Pair Coeffs 

       1      0.066  3.5000000 
       2      0.066  3.5000000 
       3      0.066  3.5000000 
       4      0.066  3.5000000 
       5      0.066  3.5000000 
       6      0.066  3.5000000 
       7      0.066  3.5000000 
       8      0.066  3.5000000 
       9      0.076  3.5500000 
      10      0.076  3.5500000 
      11      0.066  3.5000000 
      12      0.066  3.5000000 
      13      0.066  3.5000000 
      14      0.066  3.5000000 
      15      0.066  3.5000000 
      16      0.066  3.5000000 
      17      0.066  3.5000000 
      18      0.070  3.5500000 
      19      0.170  3.1200000 
      20      0.210  2.9600000 
      21      0.030  2.5000000 
      22      0.030  2.5000000 
      23      0.030  2.5000000 
      24      0.030  2.5000000 
      25      0.030  2.5000000 
      26      0.030  2.5000000 
      27      0.030  2.5000000 
      28      0.030  2.5000000 
      29      0.030  2.5000000 
      30      0.030  2.5000000 
      31      0.030  2.5000000 
      32      0.030  2.5000000 
      33      0.030  2.5000000 
      34      0.030  2.5000000 
      35      0.030  2.5000000 
      36      0.030  2.5000000 
      37      0.030  2.5000000 
      38      0.030  2.5000000 
      39      0.030  2.5000000 
      40      0.030  2.5000000 
      41      0.030  2.5000000 
      42      0.030  2.5000000 
      43      0.030  2.5000000 
      44      0.030  2.5000000 
      45      0.030  2.5000000 
      46      0.030  2.5000000 
      47      0.030  2.5000000 
      48      0.030  2.5000000 
      49      0.030  2.5000000 
      50      0.030  2.5000000 
      51      0.030  2.5000000 
      52      0.030  2.5000000 
      53      0.030  2.5000000 
      54      0.000  0.0000000 

Bond Coeffs 

       1   268.0000     1.5290 
       2   268.0000     1.5290 
       3   268.0000     1.5290 
       4   268.0000     1.5290 
       5   268.0000     1.5290 
       6   268.0000     1.5290 
       7   268.0000     1.5290 
       8   317.0000     1.5100 
       9   549.0000     1.3400 
      10   317.0000     1.5100 
      11   268.0000     1.5290 
      12   268.0000     1.5290 
      13   268.0000     1.5290 
      14   268.0000     1.5290 
      15   268.0000     1.5290 
      16   268.0000     1.5290 
      17   317.0000     1.5220 
      18   450.0000     1.3640 
      19   570.0000     1.2290 
      20   340.0000     1.0900 
      21   340.0000     1.0900 
      22   340.0000     1.0900 
      23   340.0000     1.0900 
      24   340.0000     1.0900 
      25   340.0000     1.0900 
      26   340.0000     1.0900 
      27   340.0000     1.0900 
      28   340.0000     1.0900 
      29   340.0000     1.0900 
      30   340.0000     1.0900 
      31   340.0000     1.0900 
      32   340.0000     1.0900 
      33   340.0000     1.0900 
      34   340.0000     1.0900 
      35   340.0000     1.0900 
      36   340.0000     1.0900 
      37   340.0000     1.0800 
      38   340.0000     1.0800 
      39   340.0000     1.0900 
      40   340.0000     1.0900 
      41   340.0000     1.0900 
      42   340.0000     1.0900 
      43   340.0000     1.0900 
      44   340.0000     1.0900 
      45   340.0000     1.0900 
      46   340.0000     1.0900 
      47   340.0000     1.0900 
      48   340.0000     1.0900 
      49   340.0000     1.0900 
      50   340.0000     1.0900 
      51   340.0000     1.0900 
      52   340.0000     1.0900 
      53   553.0000     0.9450 

Angle Coeffs 

       1     58.350    112.700
       2     58.350    112.700
       3     58.350    112.700
       4     58.350    112.700
       5     58.350    112.700
       6     58.350    112.700
       7     63.000    111.100
       8     70.000    124.000
       9     70.000    124.000
      10     63.000    111.100
      11     58.350    112.700
      12     58.350    112.700
      13     58.350    112.700
      14     58.350    112.700
      15     58.350    112.700
      16     63.000    111.100
      17     70.000    108.000
      18     80.000    120.400
      19     37.500    110.700
      20     37.500    110.700
      21     37.500    110.700
      22     37.500    110.700
      23     37.500    110.700
      24     37.500    110.700
      25     37.500    110.700
      26     37.500    110.700
      27     37.500    110.700
      28     37.500    110.700
      29     37.500    110.700
      30     37.500    110.700
      31     37.500    110.700
      32     37.500    110.700
      33     37.500    110.700
      34     37.500    110.700
      35     37.500    110.700
      36     35.000    117.000
      37     35.000    120.000
      38     35.000    109.500
      39     35.000    109.500
      40     37.500    110.700
      41     37.500    110.700
      42     37.500    110.700
      43     37.500    110.700
      44     37.500    110.700
      45     37.500    110.700
      46     37.500    110.700
      47     37.500    110.700
      48     37.500    110.700
      49     37.500    110.700
      50     37.500    110.700
      51     37.500    110.700
      52     35.000    113.000
      53     37.500    110.700
      54     35.000    109.500
      55     37.500    110.700
      56     33.000    107.800
      57     37.500    110.700
      58     37.500    110.700
      59     33.000    107.800
      60     37.500    110.700
      61     37.500    110.700
      62     37.500    110.700
      63     33.000    107.800
      64     35.000    109.500
      65     37.500    110.700
      66     33.000    107.800
      67     37.500    110.700
      68     37.500    110.700
      69     33.000    107.800
      70     33.000    107.800
      71     33.000    107.800
      72     33.000    107.800
      73     37.500    110.700
      74     37.500    110.700
      75     33.000    107.800
      76     33.000    107.800
      77     35.000    109.500
      78     80.000    121.000
      79     37.500    110.700
      80     37.500    110.700
      81     37.500    110.700
      82     37.500    110.700
      83     35.000    109.500
      84     33.000    107.800
      85     37.500    110.700
      86     33.000    107.800
      87     37.500    110.700
      88     33.000    107.800
      89     35.000    117.000
      90     35.000    120.000
      91     33.000    107.800
      92     33.000    107.800
      93     37.500    110.700
      94     33.000    107.800
      95     37.500    110.700
      96     37.500    110.700
      97     37.500    110.700
      98     33.000    107.800
      99     37.500    110.700
     100     37.500    110.700

Dihedral Coeffs  

       1      1.300     -0.200      0.200      0.000 
       2      1.300     -0.200      0.200      0.000 
       3      1.300     -0.200      0.200      0.000 
       4      1.300     -0.200      0.200      0.000 
       5      1.300     -0.200      0.200      0.000 
       6      1.300     -0.200      0.200      0.000 
       7      0.346      0.405     -0.904      0.000 
       8      0.000     14.000      0.000      0.000 
       9      0.346      0.405     -0.904      0.000 
      10      1.300     -0.200      0.200      0.000 
      11      1.300     -0.200      0.200      0.000 
      12      1.300     -0.200      0.200      0.000 
      13      1.300     -0.200      0.200      0.000 
      14      1.300     -0.200      0.200      0.000 
      15     -2.060     -0.313      0.315      0.000 
      16      1.000      0.546      0.450      0.000 
      17      0.000      0.000      0.300      0.000 
      18      1.500      5.500      0.000      0.000 
      19      0.000      0.000      0.300      0.000 
      20      0.000      0.000      0.300      0.000 
      21      0.000      0.000      0.300      0.000 
      22      0.000      0.000      0.300      0.000 
      23      0.000      0.000      0.366      0.000 
      24      0.000      0.000      0.300      0.000 
      25      0.000      0.000      0.300      0.000 
      26      0.000      0.000     -0.100      0.000 
      27      0.000      0.000      0.300      0.000 
      28      0.000      0.000      0.300      0.000 
      29      0.000     -8.000      0.000      0.000 
      30      0.000      0.000      0.300      0.000 
      31      0.000      0.000      0.300      0.000 
      32      0.000      0.000      0.300      0.000 
      33      0.000      0.000      0.300      0.000 
      34      0.000      0.000      0.300      0.000 
      35      0.000      0.000      0.300      0.000 
      36      0.000      0.000     -0.100      0.000 
      37      0.000     14.000      0.000      0.000 
      38      0.000      0.000      0.300      0.000 
      39      0.000      0.000      0.300      0.000 
      40      0.000      0.000      0.300      0.000 
      41      0.000      0.000      0.300      0.000 
      42      0.000      0.000      0.300      0.000 
      43      0.000      0.000      0.300      0.000 
      44      0.000      0.000      0.300      0.000 
      45      0.000      0.000      0.300      0.000 
      46      0.000      0.000      0.300      0.000 
      47      0.000      0.000      0.300      0.000 
      48      0.000      0.000      0.300      0.000 
      49      0.000      0.000      0.300      0.000 
      50      0.000      0.000      0.300      0.000 
      51      0.000      0.000      0.300      0.000 
      52      0.000      0.000      0.300      0.000 
      53      0.000      0.000     -0.372      0.000 
      54      0.000      0.000      0.300      0.000 
      55      0.000      0.000      0.300      0.000 
      56      0.000      0.000      0.300      0.000 
      57      0.000      0.000      0.300      0.000 
      58      0.000      0.000      0.366      0.000 
      59      0.000      0.000      0.300      0.000 
      60      0.000      0.000      0.300      0.000 
      61      0.000      0.000      0.300      0.000 
      62      0.000      0.000      0.300      0.000 
      63      0.000      0.000      0.366      0.000 
      64      0.000      0.000      0.000      0.000 
      65      0.000     14.000      0.000      0.000 
      66      0.000      0.000      0.300      0.000 
      67      0.000      0.000      0.318      0.000 
      68      0.000      0.000      0.300      0.000 
      69      0.000      0.000      0.300      0.000 
      70      0.000      0.000      0.300      0.000 
      71      0.000      0.000      0.300      0.000 
      72      0.000      0.000      0.300      0.000 
      73      0.000      0.000      0.300      0.000 
      74      0.000      0.000      0.300      0.000 
      75      0.000      0.000      0.300      0.000 
      76      0.000      0.000      0.300      0.000 
      77      0.000      0.000      0.300      0.000 
      78      0.000      0.000      0.300      0.000 
      79      0.000      0.000      0.300      0.000 
      80      0.000      0.000      0.300      0.000 
      81      0.000      0.000      0.300      0.000 
      82      0.000      0.000      0.300      0.000 
      83      0.000      0.000      0.300      0.000 
      84      0.000      0.000      0.300      0.000 
      85      0.000      0.000      0.300      0.000 
      86      0.000      0.000      0.300      0.000 
      87      0.000      0.000      0.300      0.000 
      88      0.000      0.000      0.300      0.000 
      89      0.000      0.000      0.318      0.000 
      90      0.000      0.000      0.300      0.000 
      91      0.000      0.000      0.300      0.000 
      92      0.000      0.000      0.300      0.000 
      93      0.000      0.000      0.300      0.000 
      94      0.000      0.000      0.300      0.000 
      95      0.000      0.000      0.300      0.000 
      96      0.000      0.000      0.000      0.000 
      97      0.000      0.000      0.300      0.000 
      98      0.000      0.000      0.300      0.000 
      99      0.000      0.000      0.300      0.000 
     100      0.000      0.000      0.300      0.000 
     101      0.000     14.000      0.000      0.000 
     102      0.000      0.000      0.300      0.000 
     103      0.000      0.000      0.366      0.000 
     104      0.000      0.000      0.300      0.000 
     105      0.000      0.000      0.300      0.000 
     106      0.000      0.000      0.300      0.000 
     107      0.000      0.000      0.318      0.000 
     108      0.000      0.000      0.300      0.000 
     109      0.000      0.000      0.300      0.000 
     110      0.000      0.000      0.300      0.000 
     111      0.000      0.000      0.300      0.000 
     112      0.000      5.500      0.000      0.000 
     113      0.000      0.000      0.300      0.000 
     114      0.000      0.000      0.300      0.000 
     115      0.000      0.000      0.300      0.000 
     116      0.000      0.000      0.300      0.000 
     117      0.000      0.000      0.300      0.000 
     118      0.000      0.000      0.000      0.000 
     119      0.000     -8.000      0.000      0.000 
     120      0.000      0.000      0.300      0.000 
     121      0.000      0.000      0.300      0.000 
     122      0.000      0.000      0.300      0.000 
     123      0.000      0.000      0.300      0.000 
     124      0.000      0.000      0.300      0.000 
     125      0.000      0.000     -0.372      0.000 
     126      0.000      0.000      0.300      0.000 
     127      0.000      0.000      0.300      0.000 
     128      0.000      0.000      0.300      0.000 
     129      0.000      0.000      0.300      0.000 
     130      0.000      0.000      0.300      0.000 
     131      0.000      0.000      0.300      0.000 
     132      0.000      0.000      0.318      0.000 
     133      0.000      0.000     -0.372      0.000 
     134      0.000      0.000      0.300      0.000 
     135      0.000      0.000      0.300      0.000 
     136      0.000      0.000      0.300      0.000 
     137      0.000      0.000     -0.372      0.000 
     138      0.000      0.000      0.300      0.000 
     139      0.000      0.000      0.300      0.000 
     140      0.000      0.000      0.000      0.000 
     141      0.000      0.000      0.000      0.000 

Improper Coeffs 

       1     10.500      -1       2 
       2      0.000      -1       2 
       3      0.000      -1       2 
       4      0.000      -1       2 
       5      0.000      -1       2 
       6      0.000      -1       2 
       7      0.000      -1       2 
       8      0.000      -1       2 
       9      0.000      -1       2 
      10      0.000      -1       2 
      11      0.000      -1       2 
      12      0.000      -1       2 
      13      0.000      -1       2 
      14      0.000      -1       2 
      15      0.000      -1       2 
      16      0.000      -1       2 
      17      0.000      -1       2 
      18      2.500      -1       2 
      19      2.500      -1       2 
      20      0.000      -1       2 
      21      0.000      -1       2 
      22      0.000      -1       2 
      23      0.000      -1       2 
      24      0.000      -1       2 
      25      0.000      -1       2 
      26      0.000      -1       2 
      27      0.000      -1       2 
      28      0.000      -1       2 
      29      0.000      -1       2 
      30      0.000      -1       2 
      31      0.000      -1       2 
      32      0.000      -1       2 
      33      0.000      -1       2 

Atoms 

     1      1      1 -0.23880000    1.000  1.00000  0.00000
     2      1      2 -0.17960000   -0.519  1.00000  0.00000
     3      1      3 -0.17860000   -1.071  1.00000  1.42395
     4      1      4 -0.17930000   -2.598  0.99820  1.42395
     5      1      5 -0.17910000   -3.143  0.99641  2.85015
     6      1      6 -0.18030000   -4.670  0.99641  2.85015
     7      1      7 -0.17680000   -5.217  0.99642  4.27546
     8      1      8 -0.14480000   -6.744  1.06210  4.26946
     9      1      9 -0.18970000   -7.290  1.06432  5.66571
    10      1     10 -0.19800000   -8.441  0.46649  6.00424
    11      1     11 -0.14280000   -8.991  0.46354  7.39807
    12      1     12 -0.17490000   -9.174 -0.96759  7.89781
    13      1     13 -0.18000000   -9.734 -0.98201  9.31852
    14      1     14 -0.17810000   -9.917 -2.41420  9.81472
    15      1     15 -0.18010000  -10.478 -2.44008 11.23482
    16      1     16 -0.17010000  -10.660 -3.87608 11.72193
    17      1     17 -0.26060000  -11.222 -3.91669 13.14042
    18      1     18 0.50960000  -11.406 -5.33393 13.62854
    19      1     19 -0.55950000  -11.906 -5.38163 14.88572
    20      1     20 -0.44480000  -11.147 -6.34222 12.99086
    21      1     21 0.08090000    1.378  0.99870 -1.02689
    22      1     22 0.08090000    1.390  0.11282  0.50862
    23      1     23 0.08090000    1.390  1.88853  0.50642
    24      1     24 0.08840000   -0.880  0.11628 -0.53980
    25      1     25 0.08840000   -0.881  1.88338 -0.53959
    26      1     26 0.08960000   -0.704  1.88386  1.96035
    27      1     27 0.08960000   -0.702  0.11750  1.96116
    28      1     28 0.08950000   -2.966  0.11477  0.88787
    29      1     29 0.08950000   -2.968  1.88171  0.88925
    30      1     30 0.08990000   -2.775  1.87958  3.38614
    31      1     31 0.08990000   -2.775  0.11331  3.38610
    32      1     32 0.08980000   -5.040  0.11414  2.31408
    33      1     33 0.08980000   -5.036  1.88101  2.31548
    34      1     34 0.09190000   -4.812  1.85913  4.82013
    35      1     35 0.09190000   -4.879  0.09544  4.80285
    36      1     36 0.09810000   -7.143  0.21230  3.70198
    37      1     37 0.09810000   -7.066  1.98100  3.76652
    38      1     38 0.13630000   -6.709  1.58265  6.42610
    39      1     39 0.13600000   -9.024 -0.04950  5.24364
    40      1     40 0.09510000   -9.955  0.98646  7.39603
    41      1     41 0.09510000   -8.328  1.01093  8.07812
    42      1     42 0.09390000   -8.212 -1.49558  7.87595
    43      1     43 0.09390000   -9.854 -1.51043  7.22873
    44      1     44 0.08920000  -10.696 -0.45579  9.34037
    45      1     45 0.08920000   -9.052 -0.44320  9.98758
    46      1     46 0.09430000   -8.953 -2.93728  9.78959
    47      1     47 0.09430000  -10.595 -2.95166  9.14079
    48      1     48 0.08810000  -11.442 -1.91663 11.25920
    49      1     49 0.08810000   -9.800 -1.90300 11.90898
    50      1     50 0.11120000   -9.696 -4.39869 11.69117
    51      1     51 0.11120000  -11.334 -4.41256 11.04226
    52      1     52 0.12110000  -12.196 -3.41578 13.16522
    53      1     53 0.12110000  -10.536 -3.40428 13.82438
    54      1     54 0.45100000  -12.067 -4.50217 15.27540

Bonds 

     1      1      2      1
     2      2      3      2
     3      3      4      3
     4      4      5      4
     5      5      6      5
     6      6      7      6
     7      7      8      7
     8      8      9      8
     9      9     10      9
    10     10     11     10
    11     11     12     11
    12     12     13     12
    13     13     14     13
    14     14     15     14
    15     15     16     15
    16     16     17     16
    17     17     18     17
    18     18     19     18
    19     19     20     18
    20     20     21      1
    21     21     22      1
    22     22     23      1
    23     23     24      2
    24     24     25      2
    25     25     26      3
    26     26     27      3
    27     27     28      4
    28     28     29      4
    29     29     30      5
    30     30     31      5
    31     31     32      6
    32     32     33      6
    33     33     34      7
    34     34     35      7
    35     35     36      8
    36     36     37      8
    37     37     38      9
    38     38     39     10
    39     39     40     11
    40     40     41     11
    41     41     42     12
    42     42     43     12
    43     43     44     13
    44     44     45     13
    45     45     46     14
    46     46     47     14
    47     47     48     15
    48     48     49     15
    49     49     50     16
    50     50     51     16
    51     51     52     17
    52     52     53     17
    53     53     54     19

Angles 

     1      1      1      2      3
     2      2      2      3      4
     3      3      3      4      5
     4      4      4      5      6
     5      5      5      6      7
     6      6      6      7      8
     7      7      7      8      9
     8      8      8      9     10
     9      9      9     10     11
    10     10     10     11     12
    11     11     11     12     13
    12     12     12     13     14
    13     13     13     14     15
    14     14     14     15     16
    15     15     15     16     17
    16     16     16     17     18
    17     17     17     18     19
    18     18     17     18     20
    19     19      2      1     21
    20     20      2      1     22
    21     21      2      1     23
    22     22      1      2     24
    23     23      1      2     25
    24     24      2      3     26
    25     25      2      3     27
    26     26      3      4     28
    27     27      3      4     29
    28     28      4      5     30
    29     29      4      5     31
    30     30      5      6     32
    31     31      5      6     33
    32     32      6      7     34
    33     33      6      7     35
    34     34      7      8     36
    35     35      7      8     37
    36     36      8      9     38
    37     37      9     10     39
    38     38     10     11     40
    39     39     10     11     41
    40     40     11     12     42
    41     41     11     12     43
    42     42     12     13     44
    43     43     12     13     45
    44     44     13     14     46
    45     45     13     14     47
    46     46     14     15     48
    47     47     14     15     49
    48     48     15     16     50
    49     49     15     16     51
    50     50     16     17     52
    51     51     16     17     53
    52     52     18     19     54
    53     53     15     14     47
    54     54      9      8     36
    55     55     16     15     49
    56     56     46     14     47
    57     57     17     16     50
    58     58      7      6     32
    59     59     21      1     23
    60     60      3      2     25
    61     61     14     13     45
    62     62      5      4     28
    63     63     50     16     51
    64     64      9      8     37
    65     65     15     14     46
    66     66     48     15     49
    67     67     13     12     42
    68     68      6      5     31
    69     69     42     12     43
    70     70     44     13     45
    71     71     32      6     33
    72     72     36      8     37
    73     73      8      7     35
    74     74      6      5     30
    75     75     24      2     25
    76     76     21      1     22
    77     77     18     17     52
    78     78     19     18     20
    79     79      4      3     27
    80     80     13     12     43
    81     81      4      3     26
    82     82      8      7     34
    83     83     18     17     53
    84     84     34      7     35
    85     85      5      4     29
    86     86     52     17     53
    87     87     16     15     48
    88     88     26      3     27
    89     89     11     10     39
    90     90     10      9     38
    91     91     22      1     23
    92     92     28      4     29
    93     93     12     11     40
    94     94     40     11     41
    95     95      3      2     24
    96     96      7      6     33
    97     97     17     16     51
    98     98     30      5     31
    99     99     12     11     41
   100    100     14     13     44

Dihedrals

     1      1      4      3      2      1 
     2      2      5      4      3      2 
     3      3      6      5      4      3 
     4      4      7      6      5      4 
     5      5      8      7      6      5 
     6      6      9      8      7      6 
     7      7     10      9      8      7 
     8      8     11     10      9      8 
     9      9     12     11     10      9 
    10     10     13     12     11     10 
    11     11     14     13     12     11 
    12     12     15     14     13     12 
    13     13     16     15     14     13 
    14     14     17     16     15     14 
    15     15     18     17     16     15 
    16     16     19     18     17     16 
    17     17     21      1      2      3 
    18     18     54     19     18     17 
    19     19     27      3      4      5 
    20     20     50     16     15     48 
    21     21     28      4      3      2 
    22     22     47     14     13     45 
    23     23     35      7      8      9 
    24     24     48     15     14     47 
    25     25     49     15     14     46 
    26     26     51     16     17     18 
    27     27     29      4      3     26 
    28     28     28      4      3     27 
    29     29     38      9      8      7 
    30     30     53     17     16     51 
    31     31     23      1      2      3 
    32     32     48     15     16     17 
    33     33     51     16     15     14 
    34     34     45     13     14     15 
    35     35     53     17     16     15 
    36     36     50     16     17     18 
    37     37     38      9     10     11 
    38     38     45     13     12     42 
    39     39     26      3      2      1 
    40     40     46     14     13     45 
    41     41     47     14     13     44 
    42     42     35      7      6      5 
    43     43     32      6      7      8 
    44     44     32      6      5     30 
    45     45     43     12     11     40 
    46     46     42     12     11     41 
    47     47     31      5      4     29 
    48     48     45     13     12     11 
    49     49     24      2      1     22 
    50     50     30      5      4     29 
    51     51     31      5      4     28 
    52     52     33      6      7      8 
    53     53     36      8      9     10 
    54     54     30      5      4      3 
    55     55     26      3      2     25 
    56     56     27      3      2     24 
    57     57     37      8      7      6 
    58     58     34      7      8      9 
    59     59     22      1      2      3 
    60     60     37      8      7     35 
    61     61     40     11     12     13 
    62     62     44     13     12     43 
    63     63     43     12     11     10 
    64     64     20     18     17     16 
    65     65     39     10      9      8 
    66     66     25      2      1     21 
    67     67     40     11     10     39 
    68     68     29      4      3      2 
    69     69     49     15     16     17 
    70     70     47     14     13     12 
    71     71     44     13     14     15 
    72     72     29      4      5      6 
    73     73     52     17     16     15 
    74     74     36      8      7     35 
    75     75     37      8      7     34 
    76     76     35      7      6     33 
    77     77     45     13     12     43 
    78     78     48     15     14     46 
    79     79     48     15     14     13 
    80     80     33      6      5     30 
    81     81     42     12     11     40 
    82     82     27      3      2      1 
    83     83     24      2      3      4 
    84     84     31      5      4      3 
    85     85     47     14     15     16 
    86     86     28      4      5      6 
    87     87     33      6      5      4 
    88     88     30      5      6      7 
    89     89     41     11     10     39 
    90     90     24      2      1     21 
    91     91     42     12     13     14 
    92     92     34      7      6      5 
    93     93     34      7      6     32 
    94     94     32      6      5      4 
    95     95     49     15     14     13 
    96     96     53     17     18     20 
    97     97     33      6      5     31 
    98     98     43     12     11     41 
    99     99     50     16     15     14 
   100    100     31      5      6      7 
   101    101     39     10      9     38 
   102    102     26      3      2     24 
   103    103     42     12     11     10 
   104    104     53     17     16     50 
   105    105     51     16     15     49 
   106    106     36      8      7      6 
   107    107     38      9      8     37 
   108    108     50     16     15     49 
   109    109     51     16     15     48 
   110    110     24      2      1     23 