#C4_amine

13 atoms
4 atom types

12 bonds
4 bond types

21 angles
6 angle types

24 dihedrals
5 dihedral types

7 impropers
1 improper types

-2.8884  47.1116  xlo xhi
0  50.11276  ylo yhi
-1.02721  48.97279  zlo zhi

Masses

1  12.011
2  14.007
3  1.008
4  1.008

Pair Coeffs

1  0.066  3.5
2  0.17  3.3
3  0.03  2.5
4  0.0  0.0

Bond Coeffs

1  268.0  1.529
2  382.0  1.448
3  340.0  1.09
4  434.0  1.01

Angle Coeffs

1  58.35  112.7
2  56.2  109.47
3  37.5  110.7
4  35.0  109.5
5  33.0  107.8
6  43.6  106.4

Dihedral Coeffs

1  2.392  -0.674  0.55  0.0
2  0.0  0.0  0.3  0.0
3  -0.19  -0.417  0.418  0.0
4  -1.013  -0.709  0.473  0.0
5  0.0  0.0  0.4  0.0

Improper Coeffs

1  0.0  -1.0  2.0

Atoms # full

1  1  1  -0.2398   1   1   0
2  1  1  -0.1812  -0.521   1   0
3  1  1   0.0894  -1.075   1   1.42222
4  1  2  -0.9283  -2.533   0.99827   1.39571
5  1  3   0.0819   1.378   0.9987  -1.02721
6  1  3   0.0819   1.392   0.11276   0.5073
7  1  3   0.0819   1.391   1.88889   0.50527
8  1  3   0.0973  -0.878   0.11612  -0.54274
9  1  3   0.0973  -0.877   1.88286  -0.54498
10  1  3   0.0775  -0.723   1.88374   1.96561
11  1  3   0.0775  -0.727   0.11288   1.96177
12  1  4   0.3322  -2.868   1.83526   0.92041
13  1  4   0.3322  -2.888   1.0505   2.34952

Bonds

1  1  2  1
2  1  3  2
3  2  4  3
4  3  5  1
5  3  6  1
6  3  7  1
7  3  8  2
8  3  9  2
9  3  10  3
10  3  11  3
11  4  12  4
12  4  13  4

Angles

1  1  1  2  3
2  2  2  3  4
3  3  2  1  5
4  3  2  1  6
5  3  2  1  7
6  3  1  2  8
7  3  1  2  9
8  3  2  3  10
9  3  2  3  11
10  4  3  4  12
11  4  3  4  13
12  5  6  1  7
13  5  8  2  9
14  4  4  3  11
15  5  5  1  6
16  5  10  3  11
17  4  4  3  10
18  6  12  4  13
19  3  3  2  8
20  5  5  1  7
21  3  3  2  9

Dihedrals

1  1  4  3  2  1
2  2  5  1  2  3
3  3  12  4  3  2
4  2  10  3  2  9
5  2  11  3  2  8
6  4  8  2  3  4
7  2  11  3  2  1
8  5  12  4  3  10
9  2  9  2  1  5
10  2  8  2  1  6
11  2  7  1  2  3
12  5  13  4  3  10
13  2  11  3  2  9
14  4  9  2  3  4
15  2  10  3  2  8
16  5  13  4  3  11
17  2  9  2  1  7
18  2  6  1  2  3
19  2  8  2  1  5
20  2  9  2  1  6
21  2  8  2  1  7
22  2  10  3  2  1
23  5  12  4  3  11
24  3  13  4  3  2

Impropers

1  1  1  2  5  6
2  1  1  2  5  7
3  1  2  1  3  8
4  1  2  9  3  1
5  1  3  10  4  2
6  1  3  2  11  4
7  1  4  12  3  13
