LAMMPS data file Created by LigParGen - (Written by Leela S. Dodda)

      13 atoms
      12 bonds
      21 angles
      24 dihedrals
       7 impropers
 
      13 atom types
      12 bond types
      21 angle types
      24 dihedral types
       7 improper types
 
   -2.888400    47.111600 xlo xhi
    0.112760    50.112760 ylo yhi
   -1.027210    48.972790 zlo zhi

Masses

       1     12.011  
       2     12.011  
       3     12.011  
       4     14.007  
       5      1.008  
       6      1.008  
       7      1.008  
       8      1.008  
       9      1.008  
      10      1.008  
      11      1.008  
      12      1.008  
      13      1.008  

Pair Coeffs 

       1      0.066  3.5000000 
       2      0.066  3.5000000 
       3      0.066  3.5000000 
       4      0.170  3.3000000 
       5      0.030  2.5000000 
       6      0.030  2.5000000 
       7      0.030  2.5000000 
       8      0.030  2.5000000 
       9      0.030  2.5000000 
      10      0.030  2.5000000 
      11      0.030  2.5000000 
      12      0.000  0.0000000 
      13      0.000  0.0000000 

Bond Coeffs 

       1   268.0000     1.5290 
       2   268.0000     1.5290 
       3   382.0000     1.4480 
       4   340.0000     1.0900 
       5   340.0000     1.0900 
       6   340.0000     1.0900 
       7   340.0000     1.0900 
       8   340.0000     1.0900 
       9   340.0000     1.0900 
      10   340.0000     1.0900 
      11   434.0000     1.0100 
      12   434.0000     1.0100 

Angle Coeffs 

       1     58.350    112.700
       2     56.200    109.470
       3     37.500    110.700
       4     37.500    110.700
       5     37.500    110.700
       6     37.500    110.700
       7     37.500    110.700
       8     37.500    110.700
       9     37.500    110.700
      10     35.000    109.500
      11     35.000    109.500
      12     33.000    107.800
      13     33.000    107.800
      14     35.000    109.500
      15     33.000    107.800
      16     33.000    107.800
      17     35.000    109.500
      18     43.600    106.400
      19     37.500    110.700
      20     33.000    107.800
      21     37.500    110.700

Dihedral Coeffs  

       1      2.392     -0.674      0.550      0.000 
       2      0.000      0.000      0.300      0.000 
       3     -0.190     -0.417      0.418      0.000 
       4      0.000      0.000      0.300      0.000 
       5      0.000      0.000      0.300      0.000 
       6     -1.013     -0.709      0.473      0.000 
       7      0.000      0.000      0.300      0.000 
       8      0.000      0.000      0.400      0.000 
       9      0.000      0.000      0.300      0.000 
      10      0.000      0.000      0.300      0.000 
      11      0.000      0.000      0.300      0.000 
      12      0.000      0.000      0.400      0.000 
      13      0.000      0.000      0.300      0.000 
      14     -1.013     -0.709      0.473      0.000 
      15      0.000      0.000      0.300      0.000 
      16      0.000      0.000      0.400      0.000 
      17      0.000      0.000      0.300      0.000 
      18      0.000      0.000      0.300      0.000 
      19      0.000      0.000      0.300      0.000 
      20      0.000      0.000      0.300      0.000 
      21      0.000      0.000      0.300      0.000 
      22      0.000      0.000      0.300      0.000 
      23      0.000      0.000      0.400      0.000 
      24     -0.190     -0.417      0.418      0.000 

Improper Coeffs 

       1      0.000      -1       2 
       2      0.000      -1       2 
       3      0.000      -1       2 
       4      0.000      -1       2 
       5      0.000      -1       2 
       6      0.000      -1       2 
       7      0.000      -1       2 

Atoms 

     1      1      1 -0.23980000    1.000  1.00000  0.00000
     2      1      2 -0.18120000   -0.521  1.00000  0.00000
     3      1      3 0.08940000   -1.075  1.00000  1.42222
     4      1      4 -0.92830000   -2.533  0.99827  1.39571
     5      1      5 0.08190000    1.378  0.99870 -1.02721
     6      1      6 0.08190000    1.392  0.11276  0.50730
     7      1      7 0.08190000    1.391  1.88889  0.50527
     8      1      8 0.09730000   -0.878  0.11612 -0.54274
     9      1      9 0.09730000   -0.877  1.88286 -0.54498
    10      1     10 0.07750000   -0.723  1.88374  1.96561
    11      1     11 0.07750000   -0.727  0.11288  1.96177
    12      1     12 0.33220000   -2.868  1.83526  0.92041
    13      1     13 0.33220000   -2.888  1.05050  2.34952

Bonds 

     1      1      2      1
     2      2      3      2
     3      3      4      3
     4      4      5      1
     5      5      6      1
     6      6      7      1
     7      7      8      2
     8      8      9      2
     9      9     10      3
    10     10     11      3
    11     11     12      4
    12     12     13      4

Angles 

     1      1      1      2      3
     2      2      2      3      4
     3      3      2      1      5
     4      4      2      1      6
     5      5      2      1      7
     6      6      1      2      8
     7      7      1      2      9
     8      8      2      3     10
     9      9      2      3     11
    10     10      3      4     12
    11     11      3      4     13
    12     12      6      1      7
    13     13      8      2      9
    14     14      4      3     11
    15     15      5      1      6
    16     16     10      3     11
    17     17      4      3     10
    18     18     12      4     13
    19     19      3      2      8
    20     20      5      1      7
    21     21      3      2      9

Dihedrals

     1      1      4      3      2      1 
     2      2      5      1      2      3 
     3      3     12      4      3      2 
     4      4     10      3      2      9 
     5      5     11      3      2      8 
     6      6      8      2      3      4 
     7      7     11      3      2      1 
     8      8     12      4      3     10 
     9      9      9      2      1      5 
    10     10      8      2      1      6 
    11     11      7      1      2      3 
    12     12     13      4      3     10 
    13     13     11      3      2      9 
    14     14      9      2      3      4 
    15     15     10      3      2      8 
    16     16     13      4      3     11 
    17     17      9      2      1      7 
    18     18      6      1      2      3 
    19     19      8      2      1      5 
    20     20      9      2      1      6 
    21     21      8      2      1      7 
    22     22     10      3      2      1 
    23     23     12      4      3     11 
    24     24     13      4      3      2 

Impropers

     1      1      1      2      5      6 
     2      2      1      2      5      7 
     3      3      2      1      3      8 
     4      4      2      9      3      1 
     5      5      3     10      4      2 
     6      6      3      2     11      4 
     7      7      4     12      3     13 

