#slvnt_hexane

20 atoms
2 atom types

19 bonds
2 bond types

36 angles
3 angle types

45 dihedrals
2 dihedral types

12 impropers
1 improper types

-5.08003  44.91997  xlo xhi
0  50.11113  ylo yhi
-1.0272  48.9728  zlo zhi

Masses

1  12.011
2  1.008

Pair Coeffs

1  0.066  3.5
2  0.03  2.5

Bond Coeffs

1  268.0  1.529
2  340.0  1.09

Angle Coeffs

1  58.35  112.7
2  37.5  110.7
3  33.0  107.8

Dihedral Coeffs

1  1.3  -0.2  0.2  0.0
2  0.0  0.0  0.3  0.0

Improper Coeffs

1  0.0  -1.0  2.0

Atoms # full

1  1  1  -0.2388   1   1   0
2  1  1  -0.1793  -0.52   1   0
3  1  1  -0.1785  -1.079   1   1.42286
4  1  1  -0.1785  -2.608   1.0018   1.41958
5  1  1  -0.1793  -3.167   1.0036   2.84247
6  1  1  -0.2387  -4.687   1.00718   2.84247
7  1  2   0.0807   1.378   1.0013  -1.0272
8  1  2   0.0807   1.391   0.11113   0.50526
9  1  2   0.0807   1.391   1.88763   0.50753
10  1  2   0.0881  -0.879   0.11668  -0.54098
11  1  2   0.0881  -0.879   1.88336  -0.541
12  1  2   0.0891  -0.712   1.88282   1.96069
13  1  2   0.0891  -0.713   0.11653   1.9602
14  1  2   0.0891  -2.975   0.11827   0.88266
15  1  2   0.0891  -2.973   1.88463   0.88025
16  1  2   0.0881  -2.805   1.88609   3.38286
17  1  2   0.0881  -2.809   0.1198   3.38345
18  1  2   0.0807  -5.076   1.89552   2.33466
19  1  2   0.0807  -5.065   1.00972   3.86965
20  1  2   0.0807  -5.08   0.12029   2.33528

Bonds

1  1  2  1
2  1  3  2
3  1  4  3
4  1  5  4
5  1  6  5
6  2  7  1
7  2  8  1
8  2  9  1
9  2  10  2
10  2  11  2
11  2  12  3
12  2  13  3
13  2  14  4
14  2  15  4
15  2  16  5
16  2  17  5
17  2  18  6
18  2  19  6
19  2  20  6

Angles

1  1  1  2  3
2  1  2  3  4
3  1  3  4  5
4  1  4  5  6
5  2  2  1  7
6  2  2  1  8
7  2  2  1  9
8  2  1  2  10
9  2  1  2  11
10  2  2  3  12
11  2  2  3  13
12  2  3  4  14
13  2  3  4  15
14  2  4  5  16
15  2  4  5  17
16  2  5  6  18
17  2  5  6  19
18  2  5  6  20
19  2  5  4  14
20  3  18  6  19
21  3  14  4  15
22  2  6  5  17
23  3  16  5  17
24  3  8  1  9
25  2  3  2  11
26  3  10  2  11
27  2  5  4  15
28  3  7  1  9
29  3  19  6  20
30  2  6  5  16
31  3  12  3  13
32  2  4  3  12
33  3  7  1  8
34  2  4  3  13
35  3  18  6  20
36  2  3  2  10

Dihedrals

1  1  4  3  2  1
2  1  5  4  3  2
3  1  6  5  4  3
4  2  7  1  2  3
5  2  18  6  5  4
6  2  19  6  5  17
7  2  19  6  5  4
8  2  14  4  3  2
9  2  14  4  3  12
10  2  20  6  5  4
11  2  9  1  2  3
12  2  16  5  4  15
13  2  17  5  4  14
14  2  14  4  3  13
15  2  15  4  3  12
16  2  18  6  5  16
17  2  20  6  5  16
18  2  13  3  2  10
19  2  12  3  2  1
20  2  16  5  4  14
21  2  15  4  3  2
22  2  13  3  4  5
23  2  12  3  4  5
24  2  13  3  2  11
25  2  15  4  3  13
26  2  10  2  1  7
27  2  8  1  2  3
28  2  12  3  2  10
29  2  10  2  1  9
30  2  11  2  1  8
31  2  16  5  4  3
32  2  18  6  5  17
33  2  19  6  5  16
34  2  20  6  5  17
35  2  17  5  4  15
36  2  12  3  2  11
37  2  11  2  1  7
38  2  10  2  1  8
39  2  11  2  3  4
40  2  13  3  2  1
41  2  15  4  5  6
42  2  10  2  3  4
43  2  11  2  1  9
44  2  17  5  4  3
45  2  14  4  5  6

Impropers

1  1  1  2  7  8
2  1  1  9  7  2
3  1  2  1  10  3
4  1  2  1  11  3
5  1  3  4  2  12
6  1  3  2  4  13
7  1  4  3  5  14
8  1  4  3  5  15
9  1  5  4  6  16
10  1  5  17  4  6
11  1  6  18  19  5
12  1  6  18  20  5
