LAMMPS data file Created by LigParGen - (Written by Leela S. Dodda)

      20 atoms
      19 bonds
      36 angles
      45 dihedrals
      12 impropers
 
      20 atom types
      19 bond types
      36 angle types
      45 dihedral types
      12 improper types
 
   -5.080030    44.919970 xlo xhi
    0.111130    50.111130 ylo yhi
   -1.027200    48.972800 zlo zhi

Masses

       1     12.011  
       2     12.011  
       3     12.011  
       4     12.011  
       5     12.011  
       6     12.011  
       7      1.008  
       8      1.008  
       9      1.008  
      10      1.008  
      11      1.008  
      12      1.008  
      13      1.008  
      14      1.008  
      15      1.008  
      16      1.008  
      17      1.008  
      18      1.008  
      19      1.008  
      20      1.008  

Pair Coeffs 

       1      0.066  3.5000000 
       2      0.066  3.5000000 
       3      0.066  3.5000000 
       4      0.066  3.5000000 
       5      0.066  3.5000000 
       6      0.066  3.5000000 
       7      0.030  2.5000000 
       8      0.030  2.5000000 
       9      0.030  2.5000000 
      10      0.030  2.5000000 
      11      0.030  2.5000000 
      12      0.030  2.5000000 
      13      0.030  2.5000000 
      14      0.030  2.5000000 
      15      0.030  2.5000000 
      16      0.030  2.5000000 
      17      0.030  2.5000000 
      18      0.030  2.5000000 
      19      0.030  2.5000000 
      20      0.030  2.5000000 

Bond Coeffs 

       1   268.0000     1.5290 
       2   268.0000     1.5290 
       3   268.0000     1.5290 
       4   268.0000     1.5290 
       5   268.0000     1.5290 
       6   340.0000     1.0900 
       7   340.0000     1.0900 
       8   340.0000     1.0900 
       9   340.0000     1.0900 
      10   340.0000     1.0900 
      11   340.0000     1.0900 
      12   340.0000     1.0900 
      13   340.0000     1.0900 
      14   340.0000     1.0900 
      15   340.0000     1.0900 
      16   340.0000     1.0900 
      17   340.0000     1.0900 
      18   340.0000     1.0900 
      19   340.0000     1.0900 

Angle Coeffs 

       1     58.350    112.700
       2     58.350    112.700
       3     58.350    112.700
       4     58.350    112.700
       5     37.500    110.700
       6     37.500    110.700
       7     37.500    110.700
       8     37.500    110.700
       9     37.500    110.700
      10     37.500    110.700
      11     37.500    110.700
      12     37.500    110.700
      13     37.500    110.700
      14     37.500    110.700
      15     37.500    110.700
      16     37.500    110.700
      17     37.500    110.700
      18     37.500    110.700
      19     37.500    110.700
      20     33.000    107.800
      21     33.000    107.800
      22     37.500    110.700
      23     33.000    107.800
      24     33.000    107.800
      25     37.500    110.700
      26     33.000    107.800
      27     37.500    110.700
      28     33.000    107.800
      29     33.000    107.800
      30     37.500    110.700
      31     33.000    107.800
      32     37.500    110.700
      33     33.000    107.800
      34     37.500    110.700
      35     33.000    107.800
      36     37.500    110.700

Dihedral Coeffs  

       1      1.300     -0.200      0.200      0.000 
       2      1.300     -0.200      0.200      0.000 
       3      1.300     -0.200      0.200      0.000 
       4      0.000      0.000      0.300      0.000 
       5      0.000      0.000      0.300      0.000 
       6      0.000      0.000      0.300      0.000 
       7      0.000      0.000      0.300      0.000 
       8      0.000      0.000      0.300      0.000 
       9      0.000      0.000      0.300      0.000 
      10      0.000      0.000      0.300      0.000 
      11      0.000      0.000      0.300      0.000 
      12      0.000      0.000      0.300      0.000 
      13      0.000      0.000      0.300      0.000 
      14      0.000      0.000      0.300      0.000 
      15      0.000      0.000      0.300      0.000 
      16      0.000      0.000      0.300      0.000 
      17      0.000      0.000      0.300      0.000 
      18      0.000      0.000      0.300      0.000 
      19      0.000      0.000      0.300      0.000 
      20      0.000      0.000      0.300      0.000 
      21      0.000      0.000      0.300      0.000 
      22      0.000      0.000      0.300      0.000 
      23      0.000      0.000      0.300      0.000 
      24      0.000      0.000      0.300      0.000 
      25      0.000      0.000      0.300      0.000 
      26      0.000      0.000      0.300      0.000 
      27      0.000      0.000      0.300      0.000 
      28      0.000      0.000      0.300      0.000 
      29      0.000      0.000      0.300      0.000 
      30      0.000      0.000      0.300      0.000 
      31      0.000      0.000      0.300      0.000 
      32      0.000      0.000      0.300      0.000 
      33      0.000      0.000      0.300      0.000 
      34      0.000      0.000      0.300      0.000 
      35      0.000      0.000      0.300      0.000 
      36      0.000      0.000      0.300      0.000 
      37      0.000      0.000      0.300      0.000 
      38      0.000      0.000      0.300      0.000 
      39      0.000      0.000      0.300      0.000 
      40      0.000      0.000      0.300      0.000 
      41      0.000      0.000      0.300      0.000 
      42      0.000      0.000      0.300      0.000 
      43      0.000      0.000      0.300      0.000 
      44      0.000      0.000      0.300      0.000 
      45      0.000      0.000      0.300      0.000 

Improper Coeffs 

       1      0.000      -1       2 
       2      0.000      -1       2 
       3      0.000      -1       2 
       4      0.000      -1       2 
       5      0.000      -1       2 
       6      0.000      -1       2 
       7      0.000      -1       2 
       8      0.000      -1       2 
       9      0.000      -1       2 
      10      0.000      -1       2 
      11      0.000      -1       2 
      12      0.000      -1       2 

Atoms 

     1      1      1 -0.23880000    1.000  1.00000  0.00000
     2      1      2 -0.17930000   -0.520  1.00000  0.00000
     3      1      3 -0.17850000   -1.079  1.00000  1.42286
     4      1      4 -0.17850000   -2.608  1.00180  1.41958
     5      1      5 -0.17930000   -3.167  1.00360  2.84247
     6      1      6 -0.23870000   -4.687  1.00718  2.84247
     7      1      7 0.08070000    1.378  1.00130 -1.02720
     8      1      8 0.08070000    1.391  0.11113  0.50526
     9      1      9 0.08070000    1.391  1.88763  0.50753
    10      1     10 0.08810000   -0.879  0.11668 -0.54098
    11      1     11 0.08810000   -0.879  1.88336 -0.54100
    12      1     12 0.08910000   -0.712  1.88282  1.96069
    13      1     13 0.08910000   -0.713  0.11653  1.96020
    14      1     14 0.08910000   -2.975  0.11827  0.88266
    15      1     15 0.08910000   -2.973  1.88463  0.88025
    16      1     16 0.08810000   -2.805  1.88609  3.38286
    17      1     17 0.08810000   -2.809  0.11980  3.38345
    18      1     18 0.08070000   -5.076  1.89552  2.33466
    19      1     19 0.08070000   -5.065  1.00972  3.86965
    20      1     20 0.08070000   -5.080  0.12029  2.33528

Bonds 

     1      1      2      1
     2      2      3      2
     3      3      4      3
     4      4      5      4
     5      5      6      5
     6      6      7      1
     7      7      8      1
     8      8      9      1
     9      9     10      2
    10     10     11      2
    11     11     12      3
    12     12     13      3
    13     13     14      4
    14     14     15      4
    15     15     16      5
    16     16     17      5
    17     17     18      6
    18     18     19      6
    19     19     20      6

Angles 

     1      1      1      2      3
     2      2      2      3      4
     3      3      3      4      5
     4      4      4      5      6
     5      5      2      1      7
     6      6      2      1      8
     7      7      2      1      9
     8      8      1      2     10
     9      9      1      2     11
    10     10      2      3     12
    11     11      2      3     13
    12     12      3      4     14
    13     13      3      4     15
    14     14      4      5     16
    15     15      4      5     17
    16     16      5      6     18
    17     17      5      6     19
    18     18      5      6     20
    19     19      5      4     14
    20     20     18      6     19
    21     21     14      4     15
    22     22      6      5     17
    23     23     16      5     17
    24     24      8      1      9
    25     25      3      2     11
    26     26     10      2     11
    27     27      5      4     15
    28     28      7      1      9
    29     29     19      6     20
    30     30      6      5     16
    31     31     12      3     13
    32     32      4      3     12
    33     33      7      1      8
    34     34      4      3     13
    35     35     18      6     20
    36     36      3      2     10

Dihedrals

     1      1      4      3      2      1 
     2      2      5      4      3      2 
     3      3      6      5      4      3 
     4      4      7      1      2      3 
     5      5     18      6      5      4 
     6      6     19      6      5     17 
     7      7     19      6      5      4 
     8      8     14      4      3      2 
     9      9     14      4      3     12 
    10     10     20      6      5      4 
    11     11      9      1      2      3 
    12     12     16      5      4     15 
    13     13     17      5      4     14 
    14     14     14      4      3     13 
    15     15     15      4      3     12 
    16     16     18      6      5     16 
    17     17     20      6      5     16 
    18     18     13      3      2     10 
    19     19     12      3      2      1 
    20     20     16      5      4     14 
    21     21     15      4      3      2 
    22     22     13      3      4      5 
    23     23     12      3      4      5 
    24     24     13      3      2     11 
    25     25     15      4      3     13 
    26     26     10      2      1      7 
    27     27      8      1      2      3 
    28     28     12      3      2     10 
    29     29     10      2      1      9 
    30     30     11      2      1      8 
    31     31     16      5      4      3 
    32     32     18      6      5     17 
    33     33     19      6      5     16 
    34     34     20      6      5     17 
    35     35     17      5      4     15 
    36     36     12      3      2     11 
    37     37     11      2      1      7 
    38     38     10      2      1      8 
    39     39     11      2      3      4 
    40     40     13      3      2      1 
    41     41     15      4      5      6 
    42     42     10      2      3      4 
    43     43     11      2      1      9 
    44     44     17      5      4      3 
    45     45     14      4      5      6 

Impropers

     1      1      1      2      7      8 
     2      2      1      9      7      2 
     3      3      2      1     10      3 
     4      4      2      1     11      3 
     5      5      3      4      2     12 
     6      6      3      2      4     13 
     7      7      4      3      5     14 
     8      8      4      3      5     15 
     9      9      5      4      6     16 
    10     10      5     17      4      6 
    11     11      6     18     19      5 
    12     12      6     18     20      5 

