#C10_acid

32 atoms
6 atom types

31 bonds
6 bond types

58 angles
9 angle types

80 dihedrals
8 dihedral types

19 impropers
2 improper types

-9.57373  40.42627  xlo xhi
0  50.10574  ylo yhi
-1.02667  48.97333  zlo zhi

Masses

1  12.011
2  12.011
3  15.999
4  15.999
5  1.008
6  1.008

Pair Coeffs

1  0.066  3.5
2  0.07  3.55
3  0.21  2.96
4  0.17  3.12
5  0.03  2.5
6  0.0  0.0

Bond Coeffs

1  268.0  1.529
2  317.0  1.522
3  570.0  1.229
4  450.0  1.364
5  340.0  1.09
6  553.0  0.945

Angle Coeffs

1  58.35  112.7
2  63.0  111.1
3  80.0  120.4
4  70.0  108.0
5  37.5  110.7
6  35.0  113.0
7  80.0  121.0
8  35.0  109.5
9  33.0  107.8

Dihedral Coeffs

1  1.3  -0.2  0.2  0.0
2  -2.06  -0.313  0.315  0.0
3  0.0  0.0  0.0  0.0
4  0.0  0.0  0.3  0.0
5  1.5  5.5  0.0  0.0
6  0.0  5.5  0.0  0.0
7  1.0  0.546  0.45  0.0
8  0.0  0.0  -0.1  0.0

Improper Coeffs

1  10.5  -1.0  2.0
2  0.0  -1.0  2.0

Atoms # full

1  1  1  -0.2389   1   1   0
2  1  1  -0.1793  -0.52   1   0
3  1  1  -0.1781  -1.075   1   1.42376
4  1  1  -0.1792  -2.604   0.9982   1.42376
5  1  1  -0.1784  -3.158   1   2.84961
6  1  1  -0.1782  -4.687   0.99639   2.8447
7  1  1  -0.1795  -5.254   0.99995   4.26491
8  1  1  -0.1707  -6.783   0.99445   4.23705
9  1  1  -0.2604  -7.374   0.99609   5.64511
10  1  2   0.5097  -8.886   0.98886   5.61269
11  1  3  -0.4443  -9.574   0.98245   4.60509
12  1  4  -0.5602  -9.424   0.99181   6.8551
13  1  5   0.081   1.379   1.0013  -1.02667
14  1  5   0.081   1.391   0.11107   0.50529
15  1  5   0.081   1.391   1.88704   0.50854
16  1  5   0.0889  -0.88   0.117  -0.54078
17  1  5   0.0889  -0.88   1.88311  -0.54085
18  1  5   0.0892  -0.709   1.88406   1.95991
19  1  5   0.0892  -0.707   0.11726   1.96075
20  1  5   0.0907  -2.97   0.11329   0.88842
21  1  5   0.0907  -2.972   1.88036   0.8854
22  1  5   0.089  -2.793   1.88504   3.38477
23  1  5   0.089  -2.789   0.11901   3.38864
24  1  5   0.0936  -5.048   0.1105   2.30852
25  1  5   0.0936  -5.052   1.87688   2.30242
26  1  5   0.0881  -4.897   1.88661   4.8026
27  1  5   0.0881  -4.891   0.12002   4.80955
28  1  5   0.1109  -7.137   0.11116   3.69064
29  1  5   0.1109  -7.143   1.87231   3.68597
30  1  5   0.1212  -7.047   1.89291   6.18232
31  1  5   0.1212  -7.038   0.10574   6.18795
32  1  6   0.4512  -8.759   0.99807   7.56917

Bonds

1  1  2  1
2  1  3  2
3  1  4  3
4  1  5  4
5  1  6  5
6  1  7  6
7  1  8  7
8  1  9  8
9  2  10  9
10  3  11  10
11  4  12  10
12  5  13  1
13  5  14  1
14  5  15  1
15  5  16  2
16  5  17  2
17  5  18  3
18  5  19  3
19  5  20  4
20  5  21  4
21  5  22  5
22  5  23  5
23  5  24  6
24  5  25  6
25  5  26  7
26  5  27  7
27  5  28  8
28  5  29  8
29  5  30  9
30  5  31  9
31  6  32  12

Angles

1  1  1  2  3
2  1  2  3  4
3  1  3  4  5
4  1  4  5  6
5  1  5  6  7
6  1  6  7  8
7  1  7  8  9
8  2  8  9  10
9  3  9  10  11
10  4  9  10  12
11  5  2  1  13
12  5  2  1  14
13  5  2  1  15
14  5  1  2  16
15  5  1  2  17
16  5  2  3  18
17  5  2  3  19
18  5  3  4  20
19  5  3  4  21
20  5  4  5  22
21  5  4  5  23
22  5  5  6  24
23  5  5  6  25
24  5  6  7  26
25  5  6  7  27
26  5  7  8  28
27  5  7  8  29
28  5  8  9  30
29  5  8  9  31
30  6  10  12  32
31  7  11  10  12
32  8  10  9  30
33  5  8  7  27
34  5  7  6  24
35  9  13  1  14
36  5  9  8  28
37  9  22  5  23
38  5  6  5  22
39  5  9  8  29
40  5  3  2  17
41  5  7  6  25
42  5  4  3  19
43  9  28  8  29
44  5  8  7  26
45  5  3  2  16
46  5  4  3  18
47  9  30  9  31
48  9  16  2  17
49  9  18  3  19
50  9  14  1  15
51  8  10  9  31
52  9  26  7  27
53  9  24  6  25
54  5  5  4  20
55  5  6  5  23
56  5  5  4  21
57  9  13  1  15
58  9  20  4  21

Dihedrals

1  1  4  3  2  1
2  1  5  4  3  2
3  1  6  5  4  3
4  1  7  6  5  4
5  1  8  7  6  5
6  1  9  8  7  6
7  2  10  9  8  7
8  3  11  10  9  8
9  4  13  1  2  3
10  5  32  12  10  9
11  4  16  2  3  4
12  4  25  6  5  4
13  4  22  5  4  3
14  4  18  3  2  1
15  4  27  7  8  9
16  4  19  3  2  1
17  4  22  5  4  20
18  4  19  3  2  16
19  4  23  5  4  3
20  4  25  6  5  23
21  4  20  4  5  6
22  4  21  4  3  2
23  3  31  9  10  11
24  4  18  3  4  5
25  3  30  9  10  12
26  4  24  6  5  22
27  4  29  8  7  6
28  4  26  7  8  9
29  4  23  5  4  21
30  3  31  9  10  12
31  4  26  7  6  25
32  4  27  7  6  24
33  4  30  9  8  28
34  6  32  12  10  11
35  4  24  6  5  4
36  7  12  10  9  8
37  8  28  8  9  10
38  4  16  2  1  13
39  4  19  3  2  17
40  4  20  4  3  18
41  4  21  4  3  18
42  4  17  2  1  15
43  4  21  4  5  6
44  3  30  9  10  11
45  4  31  9  8  7
46  4  22  5  6  7
47  4  19  3  4  5
48  4  20  4  3  2
49  4  21  4  3  19
50  4  26  7  6  5
51  4  28  8  7  27
52  4  26  7  6  24
53  4  24  6  5  23
54  4  25  6  5  22
55  4  14  1  2  3
56  4  29  8  7  26
57  4  18  3  2  17
58  4  25  6  7  8
59  4  23  5  4  20
60  4  30  9  8  7
61  4  20  4  3  19
62  4  30  9  8  29
63  4  18  3  2  16
64  4  31  9  8  28
65  4  28  8  7  26
66  4  28  8  7  6
67  4  27  7  6  25
68  4  23  5  6  7
69  4  17  2  1  14
70  4  17  2  1  13
71  4  16  2  1  14
72  8  29  8  9  10
73  4  31  9  8  29
74  4  15  1  2  3
75  4  29  8  7  27
76  4  22  5  4  21
77  4  27  7  6  5
78  4  17  2  3  4
79  4  16  2  1  15
80  4  24  6  7  8

Impropers

1  1  10  9  11  12
2  2  1  2  13  14
3  2  1  2  13  15
4  2  2  1  3  16
5  2  2  17  3  1
6  2  3  18  4  2
7  2  3  2  19  4
8  2  4  3  20  5
9  2  4  5  3  21
10  2  5  4  22  6
11  2  5  4  6  23
12  2  6  5  7  24
13  2  6  25  5  7
14  2  7  26  6  8
15  2  7  27  6  8
16  2  8  9  28  7
17  2  8  9  29  7
18  2  9  10  30  8
19  2  9  10  31  8
