LAMMPS data file Created by LigParGen - (Written by Leela S. Dodda)

      31 atoms
      30 bonds
      57 angles
      78 dihedrals
      19 impropers
 
      31 atom types
      30 bond types
      57 angle types
      78 dihedral types
      19 improper types
 
   -9.508430    40.491570 xlo xhi
    0.110640    50.110640 ylo yhi
   -1.026640    48.973360 zlo zhi

Masses

       1     12.011  
       2     12.011  
       3     12.011  
       4     12.011  
       5     12.011  
       6     12.011  
       7     12.011  
       8     12.011  
       9     12.011  
      10     12.011  
      11     15.999  
      12     15.999  
      13      1.008  
      14      1.008  
      15      1.008  
      16      1.008  
      17      1.008  
      18      1.008  
      19      1.008  
      20      1.008  
      21      1.008  
      22      1.008  
      23      1.008  
      24      1.008  
      25      1.008  
      26      1.008  
      27      1.008  
      28      1.008  
      29      1.008  
      30      1.008  
      31      1.008  

Pair Coeffs 

       1      0.066  3.5000000 
       2      0.066  3.5000000 
       3      0.066  3.5000000 
       4      0.066  3.5000000 
       5      0.066  3.5000000 
       6      0.066  3.5000000 
       7      0.066  3.5000000 
       8      0.066  3.5000000 
       9      0.066  3.5000000 
      10      0.070  3.5500000 
      11      0.210  2.9600000 
      12      0.210  2.9600000 
      13      0.030  2.5000000 
      14      0.030  2.5000000 
      15      0.030  2.5000000 
      16      0.030  2.5000000 
      17      0.030  2.5000000 
      18      0.030  2.5000000 
      19      0.030  2.5000000 
      20      0.030  2.5000000 
      21      0.030  2.5000000 
      22      0.030  2.5000000 
      23      0.030  2.5000000 
      24      0.030  2.5000000 
      25      0.030  2.5000000 
      26      0.030  2.5000000 
      27      0.030  2.5000000 
      28      0.030  2.5000000 
      29      0.030  2.5000000 
      30      0.030  2.5000000 
      31      0.030  2.5000000 

Bond Coeffs 

       1   268.0000     1.5290 
       2   268.0000     1.5290 
       3   268.0000     1.5290 
       4   268.0000     1.5290 
       5   268.0000     1.5290 
       6   268.0000     1.5290 
       7   268.0000     1.5290 
       8   268.0000     1.5290 
       9   317.0000     1.5220 
      10   656.0000     1.2500 
      11   656.0000     1.2500 
      12   340.0000     1.0900 
      13   340.0000     1.0900 
      14   340.0000     1.0900 
      15   340.0000     1.0900 
      16   340.0000     1.0900 
      17   340.0000     1.0900 
      18   340.0000     1.0900 
      19   340.0000     1.0900 
      20   340.0000     1.0900 
      21   340.0000     1.0900 
      22   340.0000     1.0900 
      23   340.0000     1.0900 
      24   340.0000     1.0900 
      25   340.0000     1.0900 
      26   340.0000     1.0900 
      27   340.0000     1.0900 
      28   340.0000     1.0900 
      29   340.0000     1.0900 
      30   340.0000     1.0900 

Angle Coeffs 

       1     58.350    112.700
       2     58.350    112.700
       3     58.350    112.700
       4     58.350    112.700
       5     58.350    112.700
       6     58.350    112.700
       7     58.350    112.700
       8     63.000    111.100
       9     70.000    117.000
      10     70.000    117.000
      11     37.500    110.700
      12     37.500    110.700
      13     37.500    110.700
      14     37.500    110.700
      15     37.500    110.700
      16     37.500    110.700
      17     37.500    110.700
      18     37.500    110.700
      19     37.500    110.700
      20     37.500    110.700
      21     37.500    110.700
      22     37.500    110.700
      23     37.500    110.700
      24     37.500    110.700
      25     37.500    110.700
      26     37.500    110.700
      27     37.500    110.700
      28     37.500    110.700
      29     37.500    110.700
      30     80.000    126.000
      31     35.000    109.500
      32     37.500    110.700
      33     37.500    110.700
      34     33.000    107.800
      35     37.500    110.700
      36     33.000    107.800
      37     37.500    110.700
      38     37.500    110.700
      39     37.500    110.700
      40     37.500    110.700
      41     37.500    110.700
      42     33.000    107.800
      43     37.500    110.700
      44     37.500    110.700
      45     37.500    110.700
      46     33.000    107.800
      47     33.000    107.800
      48     33.000    107.800
      49     33.000    107.800
      50     35.000    109.500
      51     33.000    107.800
      52     33.000    107.800
      53     37.500    110.700
      54     37.500    110.700
      55     37.500    110.700
      56     33.000    107.800
      57     33.000    107.800

Dihedral Coeffs  

       1      1.300     -0.200      0.200      0.000 
       2      1.300     -0.200      0.200      0.000 
       3      1.300     -0.200      0.200      0.000 
       4      1.300     -0.200      0.200      0.000 
       5      1.300     -0.200      0.200      0.000 
       6      1.300     -0.200      0.200      0.000 
       7     -2.060     -0.313      0.315      0.000 
       8      0.000      0.000      0.000      0.000 
       9      0.000      0.000      0.300      0.000 
      10      0.000      0.000      0.300      0.000 
      11      0.000      0.000      0.300      0.000 
      12      0.000      0.000      0.300      0.000 
      13      0.000      0.000      0.300      0.000 
      14      0.000      0.000      0.300      0.000 
      15      0.000      0.000      0.300      0.000 
      16      0.000      0.000      0.300      0.000 
      17      0.000      0.000      0.300      0.000 
      18      0.000      0.000      0.300      0.000 
      19      0.000      0.000      0.300      0.000 
      20      0.000      0.000      0.300      0.000 
      21      0.000      0.000      0.300      0.000 
      22      0.000      0.000      0.000      0.000 
      23      0.000      0.000      0.300      0.000 
      24      0.000      0.000      0.000      0.000 
      25      0.000      0.000      0.300      0.000 
      26      0.000      0.000      0.300      0.000 
      27      0.000      0.000      0.300      0.000 
      28      0.000      0.000      0.300      0.000 
      29      0.000      0.000      0.000      0.000 
      30      0.000      0.000      0.300      0.000 
      31      0.000      0.000      0.300      0.000 
      32      0.000      0.000      0.300      0.000 
      33      0.000      0.000      0.300      0.000 
      34      0.000      0.000      0.300      0.000 
      35      0.000      0.000      0.000      0.000 
      36      0.000      0.000     -0.100      0.000 
      37      0.000      0.000      0.300      0.000 
      38      0.000      0.000      0.300      0.000 
      39      0.000      0.000      0.300      0.000 
      40      0.000      0.000      0.300      0.000 
      41      0.000      0.000      0.300      0.000 
      42      0.000      0.000      0.300      0.000 
      43      0.000      0.000      0.000      0.000 
      44      0.000      0.000      0.300      0.000 
      45      0.000      0.000      0.300      0.000 
      46      0.000      0.000      0.300      0.000 
      47      0.000      0.000      0.300      0.000 
      48      0.000      0.000      0.300      0.000 
      49      0.000      0.000      0.300      0.000 
      50      0.000      0.000      0.300      0.000 
      51      0.000      0.000      0.300      0.000 
      52      0.000      0.000      0.300      0.000 
      53      0.000      0.000      0.300      0.000 
      54      0.000      0.000      0.300      0.000 
      55      0.000      0.000      0.300      0.000 
      56      0.000      0.000      0.300      0.000 
      57      0.000      0.000      0.300      0.000 
      58      0.000      0.000      0.300      0.000 
      59      0.000      0.000      0.300      0.000 
      60      0.000      0.000      0.300      0.000 
      61      0.000      0.000      0.300      0.000 
      62      0.000      0.000      0.300      0.000 
      63      0.000      0.000      0.300      0.000 
      64      0.000      0.000      0.300      0.000 
      65      0.000      0.000      0.300      0.000 
      66      0.000      0.000      0.300      0.000 
      67      0.000      0.000      0.300      0.000 
      68      0.000      0.000      0.300      0.000 
      69      0.000      0.000      0.300      0.000 
      70      0.000      0.000     -0.100      0.000 
      71      0.000      0.000      0.300      0.000 
      72      0.000      0.000      0.300      0.000 
      73      0.000      0.000      0.300      0.000 
      74      0.000      0.000      0.300      0.000 
      75      0.000      0.000      0.300      0.000 
      76      0.000      0.000      0.300      0.000 
      77      0.000      0.000      0.300      0.000 
      78      0.000      0.000      0.300      0.000 

Improper Coeffs 

       1     10.500      -1       2 
       2      0.000      -1       2 
       3      0.000      -1       2 
       4      0.000      -1       2 
       5      0.000      -1       2 
       6      0.000      -1       2 
       7      0.000      -1       2 
       8      0.000      -1       2 
       9      0.000      -1       2 
      10      0.000      -1       2 
      11      0.000      -1       2 
      12      0.000      -1       2 
      13      0.000      -1       2 
      14      0.000      -1       2 
      15      0.000      -1       2 
      16      0.000      -1       2 
      17      0.000      -1       2 
      18      0.000      -1       2 
      19      0.000      -1       2 

Atoms 

     1      1      1 -0.20840000    1.000  1.00000  0.00000
     2      1      2 -0.15790000   -0.520  1.00000  0.00000
     3      1      3 -0.15670000   -1.077  1.00000  1.42314
     4      1      4 -0.15780000   -2.606  0.99820  1.42150
     5      1      5 -0.15770000   -3.161  1.00000  2.84634
     6      1      6 -0.15690000   -4.690  0.99639  2.84143
     7      1      7 -0.16110000   -5.253  0.99997  4.26298
     8      1      8 -0.13580000   -6.782  0.99812  4.24494
     9      1      9 -0.23290000   -7.359  1.00345  5.65626
    10      1     10 0.42820000   -8.889  1.00022  5.72821
    11      1     11 -0.63110000   -9.508  0.99359  4.62892
    12      1     12 -0.63110000   -9.349  1.00326  6.90728
    13      1     13 0.06660000    1.379  1.00130 -1.02664
    14      1     14 0.06660000    1.391  0.11110  0.50528
    15      1     15 0.06660000    1.391  1.88761  0.50752
    16      1     16 0.07600000   -0.879  0.11658 -0.54104
    17      1     17 0.07600000   -0.880  1.88301 -0.54079
    18      1     18 0.07590000   -0.712  1.88406  1.95969
    19      1     19 0.07590000   -0.709  0.11729  1.96051
    20      1     20 0.07630000   -2.971  0.11333  0.88580
    21      1     21 0.07630000   -2.973  1.88032  0.88278
    22      1     22 0.07310000   -2.796  1.88548  3.38101
    23      1     23 0.07310000   -2.793  0.11898  3.38579
    24      1     24 0.07530000   -5.052  0.11064  2.30533
    25      1     25 0.07530000   -5.056  1.87695  2.29910
    26      1     26 0.06500000   -4.892  1.88570  4.79945
    27      1     27 0.06500000   -4.889  0.11894  4.80509
    28      1     28 0.07930000   -7.139  0.11296  3.70399
    29      1     29 0.07930000   -7.142  1.87665  3.69578
    30      1     30 0.05890000   -7.003  1.89150  6.19335
    31      1     31 0.05890000   -6.998  0.12271  6.20215

Bonds 

     1      1      2      1
     2      2      3      2
     3      3      4      3
     4      4      5      4
     5      5      6      5
     6      6      7      6
     7      7      8      7
     8      8      9      8
     9      9     10      9
    10     10     11     10
    11     11     12     10
    12     12     13      1
    13     13     14      1
    14     14     15      1
    15     15     16      2
    16     16     17      2
    17     17     18      3
    18     18     19      3
    19     19     20      4
    20     20     21      4
    21     21     22      5
    22     22     23      5
    23     23     24      6
    24     24     25      6
    25     25     26      7
    26     26     27      7
    27     27     28      8
    28     28     29      8
    29     29     30      9
    30     30     31      9

Angles 

     1      1      1      2      3
     2      2      2      3      4
     3      3      3      4      5
     4      4      4      5      6
     5      5      5      6      7
     6      6      6      7      8
     7      7      7      8      9
     8      8      8      9     10
     9      9      9     10     11
    10     10      9     10     12
    11     11      2      1     13
    12     12      2      1     14
    13     13      2      1     15
    14     14      1      2     16
    15     15      1      2     17
    16     16      2      3     18
    17     17      2      3     19
    18     18      3      4     20
    19     19      3      4     21
    20     20      4      5     22
    21     21      4      5     23
    22     22      5      6     24
    23     23      5      6     25
    24     24      6      7     26
    25     25      6      7     27
    26     26      7      8     28
    27     27      7      8     29
    28     28      8      9     30
    29     29      8      9     31
    30     30     11     10     12
    31     31     10      9     30
    32     32      8      7     27
    33     33      7      6     24
    34     34     13      1     14
    35     35      9      8     28
    36     36     22      5     23
    37     37      6      5     22
    38     38      9      8     29
    39     39      3      2     17
    40     40      7      6     25
    41     41      4      3     19
    42     42     28      8     29
    43     43      8      7     26
    44     44      3      2     16
    45     45      4      3     18
    46     46     30      9     31
    47     47     16      2     17
    48     48     18      3     19
    49     49     14      1     15
    50     50     10      9     31
    51     51     26      7     27
    52     52     24      6     25
    53     53      5      4     20
    54     54      6      5     23
    55     55      5      4     21
    56     56     13      1     15
    57     57     20      4     21

Dihedrals

     1      1      4      3      2      1 
     2      2      5      4      3      2 
     3      3      6      5      4      3 
     4      4      7      6      5      4 
     5      5      8      7      6      5 
     6      6      9      8      7      6 
     7      7     10      9      8      7 
     8      8     11     10      9      8 
     9      9     13      1      2      3 
    10     10     16      2      3      4 
    11     11     25      6      5      4 
    12     12     22      5      4      3 
    13     13     18      3      2      1 
    14     14     27      7      8      9 
    15     15     19      3      2      1 
    16     16     22      5      4     20 
    17     17     19      3      2     16 
    18     18     23      5      4      3 
    19     19     25      6      5     23 
    20     20     20      4      5      6 
    21     21     21      4      3      2 
    22     22     31      9     10     11 
    23     23     18      3      4      5 
    24     24     30      9     10     12 
    25     25     24      6      5     22 
    26     26     29      8      7      6 
    27     27     26      7      8      9 
    28     28     23      5      4     21 
    29     29     31      9     10     12 
    30     30     26      7      6     25 
    31     31     27      7      6     24 
    32     32     30      9      8     28 
    33     33     23      5      4     20 
    34     34     24      6      5      4 
    35     35     12     10      9      8 
    36     36     28      8      9     10 
    37     37     16      2      1     13 
    38     38     19      3      2     17 
    39     39     20      4      3     18 
    40     40     21      4      3     18 
    41     41     17      2      1     15 
    42     42     21      4      5      6 
    43     43     30      9     10     11 
    44     44     31      9      8      7 
    45     45     22      5      6      7 
    46     46     19      3      4      5 
    47     47     20      4      3      2 
    48     48     21      4      3     19 
    49     49     26      7      6      5 
    50     50     28      8      7     27 
    51     51     26      7      6     24 
    52     52     24      6      5     23 
    53     53     25      6      5     22 
    54     54     14      1      2      3 
    55     55     29      8      7     26 
    56     56     18      3      2     17 
    57     57     25      6      7      8 
    58     58     30      9      8      7 
    59     59     20      4      3     19 
    60     60     30      9      8     29 
    61     61     18      3      2     16 
    62     62     31      9      8     28 
    63     63     28      8      7     26 
    64     64     28      8      7      6 
    65     65     27      7      6     25 
    66     66     23      5      6      7 
    67     67     17      2      1     14 
    68     68     17      2      1     13 
    69     69     16      2      1     14 
    70     70     29      8      9     10 
    71     71     31      9      8     29 
    72     72     15      1      2      3 
    73     73     29      8      7     27 
    74     74     22      5      4     21 
    75     75     27      7      6      5 
    76     76     17      2      3      4 
    77     77     16      2      1     15 
    78     78     24      6      7      8 

Impropers

     1      1     10      9     11     12 
     2      2      1      2     13     14 
     3      3      1      2     13     15 
     4      4      2      1      3     16 
     5      5      2     17      3      1 
     6      6      3     18      4      2 
     7      7      3      2     19      4 
     8      8      4      3     20      5 
     9      9      4      5      3     21 
    10     10      5      4     22      6 
    11     11      5      4      6     23 
    12     12      6      5      7     24 
    13     13      6     25      5      7 
    14     14      7     26      6      8 
    15     15      7     27      6      8 
    16     16      8      9     28      7 
    17     17      8      9     29      7 
    18     18      9     10     30      8 
    19     19      9     10     31      8 

