LAMMPS data file Created by LigParGen - (Written by Leela S. Dodda)

      14 atoms
      13 bonds
      24 angles
      27 dihedrals
       8 impropers
 
      14 atom types
      13 bond types
      24 angle types
      27 dihedral types
       8 improper types
 
   -3.237850    46.762150 xlo xhi
    0.111200    50.111200 ylo yhi
   -1.027220    48.972780 zlo zhi

Masses

       1     12.011  
       2     12.011  
       3     12.011  
       4     12.011  
       5     32.060  
       6      1.008  
       7      1.008  
       8      1.008  
       9      1.008  
      10      1.008  
      11      1.008  
      12      1.008  
      13      1.008  
      14      1.008  

Pair Coeffs 

       1      0.066  3.5000000 
       2      0.066  3.5000000 
       3      0.066  3.5000000 
       4      0.066  3.5000000 
       5      0.355  3.5500000 
       6      0.030  2.5000000 
       7      0.030  2.5000000 
       8      0.030  2.5000000 
       9      0.030  2.5000000 
      10      0.030  2.5000000 
      11      0.030  2.5000000 
      12      0.030  2.5000000 
      13      0.030  2.5000000 
      14      0.030  2.5000000 

Bond Coeffs 

       1   268.0000     1.5290 
       2   268.0000     1.5290 
       3   268.0000     1.5290 
       4   340.0000     1.7700 
       5   340.0000     1.0900 
       6   340.0000     1.0900 
       7   340.0000     1.0900 
       8   340.0000     1.0900 
       9   340.0000     1.0900 
      10   340.0000     1.0900 
      11   340.0000     1.0900 
      12   340.0000     1.0900 
      13   340.0000     1.0900 

Angle Coeffs 

       1     58.350    112.700
       2     58.350    112.700
       3     50.000    108.600
       4     37.500    110.700
       5     37.500    110.700
       6     37.500    110.700
       7     37.500    110.700
       8     37.500    110.700
       9     37.500    110.700
      10     37.500    110.700
      11     37.500    110.700
      12     37.500    110.700
      13     37.500    110.700
      14     33.000    107.800
      15     35.000    109.500
      16     33.000    107.800
      17     33.000    107.800
      18     35.000    109.500
      19     37.500    110.700
      20     37.500    110.700
      21     33.000    107.800
      22     33.000    107.800
      23     33.000    107.800
      24     37.500    110.700

Dihedral Coeffs  

       1      1.300     -0.200      0.200      0.000 
       2      1.262     -0.198      0.465      0.000 
       3      0.000      0.000      0.300      0.000 
       4      0.000      0.000      0.300      0.000 
       5      0.000      0.000      0.300      0.000 
       6      0.000      0.000      0.300      0.000 
       7      0.000      0.000      0.300      0.000 
       8      0.000      0.000      0.300      0.000 
       9      0.000      0.000      0.452      0.000 
      10      0.000      0.000      0.300      0.000 
      11      0.000      0.000      0.300      0.000 
      12      0.000      0.000      0.300      0.000 
      13      0.000      0.000      0.300      0.000 
      14      0.000      0.000      0.300      0.000 
      15      0.000      0.000      0.452      0.000 
      16      0.000      0.000      0.300      0.000 
      17      0.000      0.000      0.300      0.000 
      18      0.000      0.000      0.300      0.000 
      19      0.000      0.000      0.300      0.000 
      20      0.000      0.000      0.300      0.000 
      21      0.000      0.000      0.300      0.000 
      22      0.000      0.000      0.300      0.000 
      23      0.000      0.000      0.300      0.000 
      24      0.000      0.000      0.300      0.000 
      25      0.000      0.000      0.300      0.000 
      26      0.000      0.000      0.300      0.000 
      27      0.000      0.000      0.300      0.000 

Improper Coeffs 

       1      0.000      -1       2 
       2      0.000      -1       2 
       3      0.000      -1       2 
       4      0.000      -1       2 
       5      0.000      -1       2 
       6      0.000      -1       2 
       7      0.000      -1       2 
       8      0.000      -1       2 

Atoms 

     1      1      1 -0.20400000    1.000  1.00000  0.00000
     2      1      2 -0.17000000   -0.521  1.00000  0.00000
     3      1      3 -0.15010000   -1.081  1.00000  1.42504
     4      1      4 -0.08620000   -2.616  0.99819  1.41022
     5      1      5 -0.89990000   -3.238  1.00044  3.13372
     6      1      6 0.05550000    1.378  1.00130 -1.02722
     7      1      7 0.05550000    1.391  0.11120  0.50522
     8      1      8 0.05550000    1.391  1.88762  0.50752
     9      1      9 0.06200000   -0.878  0.11626 -0.54123
    10      1     10 0.06200000   -0.879  1.88333 -0.54098
    11      1     11 0.07830000   -0.704  1.88451  1.95539
    12      1     12 0.07830000   -0.702  0.11692  1.95618
    13      1     13 0.03160000   -2.962  0.12139  0.84923
    14      1     14 0.03160000   -2.964  1.87226  0.84619

Bonds 

     1      1      2      1
     2      2      3      2
     3      3      4      3
     4      4      5      4
     5      5      6      1
     6      6      7      1
     7      7      8      1
     8      8      9      2
     9      9     10      2
    10     10     11      3
    11     11     12      3
    12     12     13      4
    13     13     14      4

Angles 

     1      1      1      2      3
     2      2      2      3      4
     3      3      3      4      5
     4      4      2      1      6
     5      5      2      1      7
     6      6      2      1      8
     7      7      1      2      9
     8      8      1      2     10
     9      9      2      3     11
    10     10      2      3     12
    11     11      3      4     13
    12     12      3      4     14
    13     13      4      3     11
    14     14     13      4     14
    15     15      5      4     14
    16     16      9      2     10
    17     17     11      3     12
    18     18      5      4     13
    19     19      3      2      9
    20     20      4      3     12
    21     21      7      1      8
    22     22      6      1      7
    23     23      6      1      8
    24     24      3      2     10

Dihedrals

     1      1      4      3      2      1 
     2      2      5      4      3      2 
     3      3      6      1      2      3 
     4      4     11      3      2      9 
     5      5     11      3      2      1 
     6      6     14      4      3     12 
     7      7     12      3      2     10 
     8      8      7      1      2      3 
     9      9     11      3      4      5 
    10     10     14      4      3      2 
    11     11     12      3      2      1 
    12     12      9      2      3      4 
    13     13     13      4      3     12 
    14     14     14      4      3     11 
    15     15     12      3      4      5 
    16     16     13      4      3     11 
    17     17     10      2      1      7 
    18     18      8      1      2      3 
    19     19     10      2      1      6 
    20     20      9      2      1      7 
    21     21      9      2      1      6 
    22     22     13      4      3      2 
    23     23     10      2      1      8 
    24     24      9      2      1      8 
    25     25     11      3      2     10 
    26     26     12      3      2      9 
    27     27     10      2      3      4 

Impropers

     1      1      1      2      6      7 
     2      2      1      2      6      8 
     3      3      2      9      3      1 
     4      4      2      1     10      3 
     5      5      3      2     11      4 
     6      6      3      4      2     12 
     7      7      4      5      3     13 
     8      8      4      3      5     14 

