#C4_anion

14 atoms
3 atom types

13 bonds
3 bond types

24 angles
5 angle types

27 dihedrals
4 dihedral types

8 impropers
1 improper types

-3.23785  46.76215  xlo xhi
0  50.1112  ylo yhi
-1.02722  48.97278  zlo zhi

Masses

1  12.011
2  32.06
3  1.008

Pair Coeffs

1  0.066  3.5
2  0.355  3.55
3  0.03  2.5

Bond Coeffs

1  268.0  1.529
2  340.0  1.77
3  340.0  1.09

Angle Coeffs

1  58.35  112.7
2  50.0  108.6
3  37.5  110.7
4  33.0  107.8
5  35.0  109.5

Dihedral Coeffs

1  1.3  -0.2  0.2  0.0
2  1.262  -0.198  0.465  0.0
3  0.0  0.0  0.3  0.0
4  0.0  0.0  0.452  0.0

Improper Coeffs

1  0.0  -1.0  2.0

Atoms # full

1  1  1  -0.204   1   1   0
2  1  1  -0.17  -0.521   1   0
3  1  1  -0.1501  -1.081   1   1.42504
4  1  1  -0.0862  -2.616   0.99819   1.41022
5  1  2  -0.8999  -3.238   1.00044   3.13372
6  1  3   0.0555   1.378   1.0013  -1.02722
7  1  3   0.0555   1.391   0.1112   0.50522
8  1  3   0.0555   1.391   1.88762   0.50752
9  1  3   0.062  -0.878   0.11626  -0.54123
10  1  3   0.062  -0.879   1.88333  -0.54098
11  1  3   0.0783  -0.704   1.88451   1.95539
12  1  3   0.0783  -0.702   0.11692   1.95618
13  1  3   0.0316  -2.962   0.12139   0.84923
14  1  3   0.0316  -2.964   1.87226   0.84619

Bonds

1  1  2  1
2  1  3  2
3  1  4  3
4  2  5  4
5  3  6  1
6  3  7  1
7  3  8  1
8  3  9  2
9  3  10  2
10  3  11  3
11  3  12  3
12  3  13  4
13  3  14  4

Angles

1  1  1  2  3
2  1  2  3  4
3  2  3  4  5
4  3  2  1  6
5  3  2  1  7
6  3  2  1  8
7  3  1  2  9
8  3  1  2  10
9  3  2  3  11
10  3  2  3  12
11  3  3  4  13
12  3  3  4  14
13  3  4  3  11
14  4  13  4  14
15  5  5  4  14
16  4  9  2  10
17  4  11  3  12
18  5  5  4  13
19  3  3  2  9
20  3  4  3  12
21  4  7  1  8
22  4  6  1  7
23  4  6  1  8
24  3  3  2  10

Dihedrals

1  1  4  3  2  1
2  2  5  4  3  2
3  3  6  1  2  3
4  3  11  3  2  9
5  3  11  3  2  1
6  3  14  4  3  12
7  3  12  3  2  10
8  3  7  1  2  3
9  4  11  3  4  5
10  3  14  4  3  2
11  3  12  3  2  1
12  3  9  2  3  4
13  3  13  4  3  12
14  3  14  4  3  11
15  4  12  3  4  5
16  3  13  4  3  11
17  3  10  2  1  7
18  3  8  1  2  3
19  3  10  2  1  6
20  3  9  2  1  7
21  3  9  2  1  6
22  3  13  4  3  2
23  3  10  2  1  8
24  3  9  2  1  8
25  3  11  3  2  10
26  3  12  3  2  9
27  3  10  2  3  4

Impropers

1  1  1  2  6  7
2  1  1  2  6  8
3  1  2  9  3  1
4  1  2  1  10  3
5  1  3  2  11  4
6  1  3  4  2  12
7  1  4  5  3  13
8  1  4  3  5  14
