LAMMPS data file Created by LigParGen - (Written by Leela S. Dodda)

      15 atoms
      14 bonds
      25 angles
      30 dihedrals
       8 impropers
 
      15 atom types
      14 bond types
      25 angle types
      30 dihedral types
       8 improper types
 
   -3.264740    46.735260 xlo xhi
   -0.173310    49.826690 ylo yhi
   -1.027170    48.972830 zlo zhi

Masses

       1     12.011  
       2     12.011  
       3     12.011  
       4     12.011  
       5     32.060  
       6      1.008  
       7      1.008  
       8      1.008  
       9      1.008  
      10      1.008  
      11      1.008  
      12      1.008  
      13      1.008  
      14      1.008  
      15      1.008  

Pair Coeffs 

       1      0.066  3.5000000 
       2      0.066  3.5000000 
       3      0.066  3.5000000 
       4      0.066  3.5000000 
       5      0.425  3.6000000 
       6      0.030  2.5000000 
       7      0.030  2.5000000 
       8      0.030  2.5000000 
       9      0.030  2.5000000 
      10      0.030  2.5000000 
      11      0.030  2.5000000 
      12      0.030  2.5000000 
      13      0.030  2.5000000 
      14      0.030  2.5000000 
      15      0.000  0.0000000 

Bond Coeffs 

       1   268.0000     1.5290 
       2   268.0000     1.5290 
       3   268.0000     1.5290 
       4   222.0000     1.8100 
       5   340.0000     1.0900 
       6   340.0000     1.0900 
       7   340.0000     1.0900 
       8   340.0000     1.0900 
       9   340.0000     1.0900 
      10   340.0000     1.0900 
      11   340.0000     1.0900 
      12   340.0000     1.0900 
      13   340.0000     1.0900 
      14   274.0000     1.3360 

Angle Coeffs 

       1     58.350    112.700
       2     58.350    112.700
       3     50.000    108.600
       4     37.500    110.700
       5     37.500    110.700
       6     37.500    110.700
       7     37.500    110.700
       8     37.500    110.700
       9     37.500    110.700
      10     37.500    110.700
      11     37.500    110.700
      12     37.500    110.700
      13     44.000     96.000
      14     37.500    110.700
      15     33.000    107.800
      16     35.000    109.500
      17     33.000    107.800
      18     33.000    107.800
      19     35.000    109.500
      20     37.500    110.700
      21     37.500    110.700
      22     33.000    107.800
      23     33.000    107.800
      24     33.000    107.800
      25     37.500    110.700

Dihedral Coeffs  

       1      1.300     -0.200      0.200      0.000 
       2      1.262     -0.198      0.465      0.000 
       3      0.000      0.000      0.300      0.000 
       4     -0.759     -0.282      0.680      0.000 
       5      0.000      0.000      0.300      0.000 
       6      0.000      0.000      0.300      0.000 
       7      0.000      0.000      0.300      0.000 
       8      0.000      0.000      0.300      0.000 
       9      0.000      0.000      0.300      0.000 
      10      0.000      0.000      0.480      0.000 
      11      0.000      0.000      0.452      0.000 
      12      0.000      0.000      0.300      0.000 
      13      0.000      0.000      0.300      0.000 
      14      0.000      0.000      0.300      0.000 
      15      0.000      0.000      0.300      0.000 
      16      0.000      0.000      0.300      0.000 
      17      0.000      0.000      0.452      0.000 
      18      0.000      0.000      0.300      0.000 
      19      0.000      0.000      0.300      0.000 
      20      0.000      0.000      0.300      0.000 
      21      0.000      0.000      0.300      0.000 
      22      0.000      0.000      0.300      0.000 
      23      0.000      0.000      0.480      0.000 
      24      0.000      0.000      0.300      0.000 
      25      0.000      0.000      0.300      0.000 
      26      0.000      0.000      0.300      0.000 
      27      0.000      0.000      0.300      0.000 
      28      0.000      0.000      0.300      0.000 
      29      0.000      0.000      0.300      0.000 
      30      0.000      0.000      0.300      0.000 

Improper Coeffs 

       1      0.000      -1       2 
       2      0.000      -1       2 
       3      0.000      -1       2 
       4      0.000      -1       2 
       5      0.000      -1       2 
       6      0.000      -1       2 
       7      0.000      -1       2 
       8      0.000      -1       2 

Atoms 

     1      1      1 -0.23880000    1.000  1.00000  0.00000
     2      1      2 -0.18040000   -0.520  1.00000  0.00000
     3      1      3 -0.18290000   -1.081  1.00000  1.42365
     4      1      4 0.01240000   -2.607  0.99820  1.40729
     5      1      5 -0.44190000   -3.265  1.00036  3.09982
     6      1      6 0.08360000    1.378  1.00130 -1.02717
     7      1      7 0.08360000    1.391  0.11109  0.50528
     8      1      8 0.08360000    1.392  1.88719  0.50728
     9      1      9 0.09030000   -0.879  0.11667 -0.54098
    10      1     10 0.09030000   -0.879  1.88335 -0.54099
    11      1     11 0.10190000   -0.711  1.88557  1.95539
    12      1     12 0.10190000   -0.708  0.11573  1.95625
    13      1     13 0.12560000   -2.986  0.11159  0.88913
    14      1     14 0.12560000   -2.987  1.88427  0.88895
    15      1     15 0.14520000   -2.734 -0.17331  3.47353

Bonds 

     1      1      2      1
     2      2      3      2
     3      3      4      3
     4      4      5      4
     5      5      6      1
     6      6      7      1
     7      7      8      1
     8      8      9      2
     9      9     10      2
    10     10     11      3
    11     11     12      3
    12     12     13      4
    13     13     14      4
    14     14     15      5

Angles 

     1      1      1      2      3
     2      2      2      3      4
     3      3      3      4      5
     4      4      2      1      6
     5      5      2      1      7
     6      6      2      1      8
     7      7      1      2      9
     8      8      1      2     10
     9      9      2      3     11
    10     10      2      3     12
    11     11      3      4     13
    12     12      3      4     14
    13     13      4      5     15
    14     14      4      3     11
    15     15     13      4     14
    16     16      5      4     14
    17     17      9      2     10
    18     18     11      3     12
    19     19      5      4     13
    20     20      3      2      9
    21     21      4      3     12
    22     22      7      1      8
    23     23      6      1      7
    24     24      6      1      8
    25     25      3      2     10

Dihedrals

     1      1      4      3      2      1 
     2      2      5      4      3      2 
     3      3      6      1      2      3 
     4      4     15      5      4      3 
     5      5     11      3      2      9 
     6      6     11      3      2      1 
     7      7     14      4      3     12 
     8      8     12      3      2     10 
     9      9      7      1      2      3 
    10     10     15      5      4     14 
    11     11     11      3      4      5 
    12     12     14      4      3      2 
    13     13     12      3      2      1 
    14     14      9      2      3      4 
    15     15     13      4      3     12 
    16     16     14      4      3     11 
    17     17     12      3      4      5 
    18     18     13      4      3     11 
    19     19     10      2      1      7 
    20     20      8      1      2      3 
    21     21     10      2      1      6 
    22     22      9      2      1      7 
    23     23     15      5      4     13 
    24     24      9      2      1      6 
    25     25     13      4      3      2 
    26     26     10      2      1      8 
    27     27      9      2      1      8 
    28     28     11      3      2     10 
    29     29     12      3      2      9 
    30     30     10      2      3      4 

Impropers

     1      1      1      2      6      7 
     2      2      1      2      6      8 
     3      3      2      9      3      1 
     4      4      2      1     10      3 
     5      5      3      2     11      4 
     6      6      3      4      2     12 
     7      7      4      5      3     13 
     8      8      4      3      5     14 

