#C4_thiol

15 atoms
4 atom types

14 bonds
4 bond types

25 angles
6 angle types

30 dihedrals
6 dihedral types

8 impropers
1 improper types

-3.26474  46.73526  xlo xhi
-0.17331  49.82669  ylo yhi
-1.02717  48.97283  zlo zhi

Masses

1  12.011
2  32.06
3  1.008
4  1.008

Pair Coeffs

1  0.066  3.5
2  0.425  3.6
3  0.03  2.5
4  0.0  0.0

Bond Coeffs

1  268.0  1.529
2  222.0  1.81
3  340.0  1.09
4  274.0  1.336

Angle Coeffs

1  58.35  112.7
2  50.0  108.6
3  37.5  110.7
4  44.0  96.0
5  33.0  107.8
6  35.0  109.5

Dihedral Coeffs

1  1.3  -0.2  0.2  0.0
2  1.262  -0.198  0.465  0.0
3  0.0  0.0  0.3  0.0
4  -0.759  -0.282  0.68  0.0
5  0.0  0.0  0.48  0.0
6  0.0  0.0  0.452  0.0

Improper Coeffs

1  0.0  -1.0  2.0

Atoms # full

1  1  1  -0.2388   1   1   0
2  1  1  -0.1804  -0.52   1   0
3  1  1  -0.1829  -1.081   1   1.42365
4  1  1   0.0124  -2.607   0.9982   1.40729
5  1  2  -0.4419  -3.265   1.00036   3.09982
6  1  3   0.0836   1.378   1.0013  -1.02717
7  1  3   0.0836   1.391   0.11109   0.50528
8  1  3   0.0836   1.392   1.88719   0.50728
9  1  3   0.0903  -0.879   0.11667  -0.54098
10  1  3   0.0903  -0.879   1.88335  -0.54099
11  1  3   0.1019  -0.711   1.88557   1.95539
12  1  3   0.1019  -0.708   0.11573   1.95625
13  1  3   0.1256  -2.986   0.11159   0.88913
14  1  3   0.1256  -2.987   1.88427   0.88895
15  1  4   0.1452  -2.734  -0.17331   3.47353

Bonds

1  1  2  1
2  1  3  2
3  1  4  3
4  2  5  4
5  3  6  1
6  3  7  1
7  3  8  1
8  3  9  2
9  3  10  2
10  3  11  3
11  3  12  3
12  3  13  4
13  3  14  4
14  4  15  5

Angles

1  1  1  2  3
2  1  2  3  4
3  2  3  4  5
4  3  2  1  6
5  3  2  1  7
6  3  2  1  8
7  3  1  2  9
8  3  1  2  10
9  3  2  3  11
10  3  2  3  12
11  3  3  4  13
12  3  3  4  14
13  4  4  5  15
14  3  4  3  11
15  5  13  4  14
16  6  5  4  14
17  5  9  2  10
18  5  11  3  12
19  6  5  4  13
20  3  3  2  9
21  3  4  3  12
22  5  7  1  8
23  5  6  1  7
24  5  6  1  8
25  3  3  2  10

Dihedrals

1  1  4  3  2  1
2  2  5  4  3  2
3  3  6  1  2  3
4  4  15  5  4  3
5  3  11  3  2  9
6  3  11  3  2  1
7  3  14  4  3  12
8  3  12  3  2  10
9  3  7  1  2  3
10  5  15  5  4  14
11  6  11  3  4  5
12  3  14  4  3  2
13  3  12  3  2  1
14  3  9  2  3  4
15  3  13  4  3  12
16  3  14  4  3  11
17  6  12  3  4  5
18  3  13  4  3  11
19  3  10  2  1  7
20  3  8  1  2  3
21  3  10  2  1  6
22  3  9  2  1  7
23  5  15  5  4  13
24  3  9  2  1  6
25  3  13  4  3  2
26  3  10  2  1  8
27  3  9  2  1  8
28  3  11  3  2  10
29  3  12  3  2  9
30  3  10  2  3  4

Impropers

1  1  1  2  6  7
2  1  1  2  6  8
3  1  2  9  3  1
4  1  2  1  10  3
5  1  3  2  11  4
6  1  3  4  2  12
7  1  4  5  3  13
8  1  4  3  5  14
