#slvnt_methanol

6 atoms
4 atom types

5 bonds
3 bond types

7 angles
3 angle types

3 dihedrals
1 dihedral types

2 impropers
1 improper types

-1.0325  1.0325  xlo xhi
-0.89225  0.89225  ylo yhi
-0.778545  0.778545  zlo zhi

Masses

1  12.011
2  15.999
3  1.008
4  1.008

Pair Coeffs

1  0.066  3.5
2  0.17  3.12
3  0.03  2.5
4  0.0  0.0

Bond Coeffs

1  320.0  1.41
2  340.0  1.09
3  553.0  0.945

Angle Coeffs

1  35.0  109.5
2  55.0  108.5
3  33.0  107.8

Dihedral Coeffs

1  0.0  0.0  0.352  0.0

Improper Coeffs

1  0.0  -1.0  2.0

Atoms # full

1  1  1   0.0508   0.6685   -0.00678000000000001    0.251775 
2  1  2  -0.6873  -0.7475   -0.00678000000000001    0.251775 
3  1  3   0.0768   1.0325   -0.00678000000000001   -0.778545 
4  1  3   0.0768   1.0325   -0.89225    0.778545 
5  1  3   0.0768   1.0225    0.89225    0.761575 
6  1  4   0.4061  -1.0325   -0.81481   -0.207775 

Bonds

1  1  2  1
2  2  3  1
3  2  4  1
4  2  5  1
5  3  6  2

Angles

1  1  2  1  3
2  1  2  1  4
3  1  2  1  5
4  2  1  2  6
5  3  3  1  4
6  3  3  1  5
7  3  4  1  5

Dihedrals

1  1  6  2  1  3
2  1  6  2  1  5
3  1  6  2  1  4

Impropers

1  1  1  2  3  4
2  1  1  2  3  5
