#C1_amine

7 atoms
4 atom types

6 bonds
3 bond types

9 angles
3 angle types

6 dihedrals
1 dihedral types

3 impropers
1 improper types

-0.7895  49.2105  xlo xhi
0  50.11223  ylo yhi
-1.02405  48.97595  zlo zhi

Masses

1  12.011
2  14.007
3  1.008
4  1.008

Pair Coeffs

1  0.066  3.5
2  0.17  3.3
3  0.03  2.5
4  0.0  0.0

Bond Coeffs

1  382.0  1.448
2  340.0  1.09
3  434.0  1.01

Angle Coeffs

1  35.0  109.5
2  33.0  107.8
3  43.6  106.4

Dihedral Coeffs

1  0.0  0.0  0.4  0.0

Improper Coeffs

1  0.0  -1.0  2.0

Atoms # full

1  1  1   0.0255   1   1   0
2  1  2  -0.9169  -0.452   1   0
3  1  3   0.0777   1.384   1  -1.02405
4  1  3   0.0777   1.376   0.11223   0.51567
5  1  3   0.0777   1.376   1.88718   0.5167
6  1  4   0.3291  -0.789   0.18535  -0.51096
7  1  4   0.3291  -0.789   1.81517  -0.51012

Bonds

1  1  2  1
2  2  3  1
3  2  4  1
4  2  5  1
5  3  6  2
6  3  7  2

Angles

1  1  2  1  3
2  1  2  1  4
3  1  2  1  5
4  1  1  2  6
5  1  1  2  7
6  2  3  1  4
7  2  3  1  5
8  3  6  2  7
9  2  4  1  5

Dihedrals

1  1  6  2  1  3
2  1  7  2  1  5
3  1  6  2  1  4
4  1  7  2  1  3
5  1  6  2  1  5
6  1  7  2  1  4

Impropers

1  1  1  2  3  4
2  1  1  2  3  5
3  1  2  1  6  7
