LAMMPS data file Created by LigParGen - (Written by Leela S. Dodda)

       7 atoms
       6 bonds
       9 angles
       6 dihedrals
       3 impropers
 
       7 atom types
       6 bond types
       9 angle types
       6 dihedral types
       3 improper types
 
   -0.789500    49.210500 xlo xhi
    0.112230    50.112230 ylo yhi
   -1.024050    48.975950 zlo zhi

Masses

       1     12.011  
       2     14.007  
       3      1.008  
       4      1.008  
       5      1.008  
       6      1.008  
       7      1.008  

Pair Coeffs 

       1      0.066  3.5000000 
       2      0.170  3.3000000 
       3      0.030  2.5000000 
       4      0.030  2.5000000 
       5      0.030  2.5000000 
       6      0.000  0.0000000 
       7      0.000  0.0000000 

Bond Coeffs 

       1   382.0000     1.4480 
       2   340.0000     1.0900 
       3   340.0000     1.0900 
       4   340.0000     1.0900 
       5   434.0000     1.0100 
       6   434.0000     1.0100 

Angle Coeffs 

       1     35.000    109.500
       2     35.000    109.500
       3     35.000    109.500
       4     35.000    109.500
       5     35.000    109.500
       6     33.000    107.800
       7     33.000    107.800
       8     43.600    106.400
       9     33.000    107.800

Dihedral Coeffs  

       1      0.000      0.000      0.400      0.000 
       2      0.000      0.000      0.400      0.000 
       3      0.000      0.000      0.400      0.000 
       4      0.000      0.000      0.400      0.000 
       5      0.000      0.000      0.400      0.000 
       6      0.000      0.000      0.400      0.000 

Improper Coeffs 

       1      0.000      -1       2 
       2      0.000      -1       2 
       3      0.000      -1       2 

Atoms 

     1      1      1 0.02550000    1.000  1.00000  0.00000
     2      1      2 -0.91690000   -0.452  1.00000  0.00000
     3      1      3 0.07770000    1.384  1.00000 -1.02405
     4      1      4 0.07770000    1.376  0.11223  0.51567
     5      1      5 0.07770000    1.376  1.88718  0.51670
     6      1      6 0.32910000   -0.789  0.18535 -0.51096
     7      1      7 0.32910000   -0.789  1.81517 -0.51012

Bonds 

     1      1      2      1
     2      2      3      1
     3      3      4      1
     4      4      5      1
     5      5      6      2
     6      6      7      2

Angles 

     1      1      2      1      3
     2      2      2      1      4
     3      3      2      1      5
     4      4      1      2      6
     5      5      1      2      7
     6      6      3      1      4
     7      7      3      1      5
     8      8      6      2      7
     9      9      4      1      5

Dihedrals

     1      1      6      2      1      3 
     2      2      7      2      1      5 
     3      3      6      2      1      4 
     4      4      7      2      1      3 
     5      5      6      2      1      5 
     6      6      7      2      1      4 

Impropers

     1      1      1      2      3      4 
     2      2      1      2      3      5 
     3      3      2      1      6      7 

