#slvnt_mch

21 atoms
2 atom types

21 bonds
2 bond types

42 angles
3 angle types

63 dihedrals
2 dihedral types

14 impropers
1 improper types

-2.0005  2.0005  xlo xhi
-2.1873  2.1873  ylo yhi
-2.45382  2.45382  zlo zhi

Masses

1  12.011
2  1.008

Pair Coeffs

1  0.066  3.5
2  0.03  2.5

Bond Coeffs

1  268.0  1.529
2  340.0  1.09

Angle Coeffs

1  58.35  112.7
2  37.5  110.7
3  33.0  107.8

Dihedral Coeffs

1  1.3  -0.2  0.2  0.0
2  0.0  0.0  0.3  0.0

Improper Coeffs

1  0.0  -1.0  2.0

Atoms # full

1  1  1  -0.2332   1.5835   -1.25699   -0.65634 
2  1  1  -0.1109   0.0525   -1.25699   -0.65634 
3  1  1  -0.1689  -0.5135   -1.25699    0.77126 
4  1  1  -0.1729  -0.3395    0.0851200000000003    1.47985 
5  1  1  -0.1735  -0.9085    1.23569    0.65525 
6  1  1  -0.1727  -0.3435    1.25914   -0.76191 
7  1  1  -0.1684  -0.5145   -0.0798599999999996   -1.46299 
8  1  2   0.0804   1.9675   -2.12409   -0.1082 
9  1  2   0.0804   2.0005   -0.35815   -0.19271 
10  1  2   0.0804   1.9675   -1.31549   -1.68042 
11  1  2   0.0924  -0.2655   -2.1873   -1.14534 
12  1  2   0.0867  -0.0455   -2.05098    1.365 
13  1  2   0.0867  -1.5845   -1.49215    0.72391 
14  1  2   0.087   0.7235    0.26613    1.68012 
15  1  2   0.087  -0.8405    0.0504700000000002    2.45382 
16  1  2   0.0861  -0.6925    2.1873    1.15402 
17  1  2   0.0861  -2.0005    1.14045    0.60808 
18  1  2   0.0869   0.7185    1.52915   -0.72852 
19  1  2   0.0869  -0.8485    2.0407   -1.34149 
20  1  2   0.0867  -0.0475   -0.0385199999999997   -2.45382 
21  1  2   0.0867  -1.5865   -0.252769999999999   -1.62952 

Bonds

1  1  2  1
2  1  3  2
3  1  4  3
4  1  5  4
5  1  6  5
6  1  7  2
7  2  8  1
8  2  9  1
9  2  10  1
10  2  11  2
11  2  12  3
12  2  13  3
13  2  14  4
14  2  15  4
15  2  16  5
16  2  17  5
17  2  18  6
18  2  19  6
19  2  20  7
20  2  21  7
21  1  7  6

Angles

1  1  1  2  3
2  1  2  3  4
3  1  3  4  5
4  1  4  5  6
5  1  1  2  7
6  2  2  1  8
7  2  2  1  9
8  2  2  1  10
9  2  1  2  11
10  2  2  3  12
11  2  2  3  13
12  2  3  4  14
13  2  3  4  15
14  2  4  5  16
15  2  4  5  17
16  2  5  6  18
17  2  5  6  19
18  2  2  7  20
19  2  2  7  21
20  2  7  2  11
21  2  6  7  20
22  2  5  4  14
23  3  8  1  10
24  2  7  6  18
25  3  18  6  19
26  3  9  1  10
27  1  2  7  6
28  3  20  7  21
29  3  14  4  15
30  2  6  7  21
31  1  5  6  7
32  2  6  5  17
33  3  16  5  17
34  3  8  1  9
35  2  3  2  11
36  3  12  3  13
37  2  7  6  19
38  2  5  4  15
39  2  6  5  16
40  2  4  3  12
41  1  3  2  7
42  2  4  3  13

Dihedrals

1  1  4  3  2  1
2  1  5  4  3  2
3  1  6  5  4  3
4  2  8  1  2  3
5  2  20  7  2  11
6  2  16  5  6  7
7  2  12  3  2  7
8  2  21  7  6  18
9  2  20  7  2  1
10  2  9  1  2  3
11  2  19  6  5  4
12  2  14  4  3  2
13  2  14  4  3  12
14  2  21  7  2  1
15  2  18  6  5  4
16  2  20  7  6  19
17  2  19  6  5  17
18  1  6  7  2  3
19  1  6  7  2  1
20  2  16  5  4  15
21  2  13  3  2  7
22  2  14  4  3  13
23  2  15  4  3  12
24  1  7  6  5  4
25  2  18  6  5  16
26  2  19  6  7  2
27  2  12  3  4  5
28  2  21  7  6  19
29  2  11  2  7  6
30  2  12  3  2  1
31  2  21  7  6  5
32  2  16  5  4  14
33  2  21  7  2  11
34  2  17  5  6  7
35  2  15  4  3  2
36  2  13  3  4  5
37  2  21  7  2  3
38  2  13  3  2  11
39  2  15  4  3  13
40  2  10  1  2  7
41  2  9  1  2  7
42  1  5  6  7  2
43  2  17  5  4  14
44  2  19  6  5  16
45  2  11  2  1  8
46  2  16  5  4  3
47  2  18  6  5  17
48  2  8  1  2  7
49  2  20  7  2  3
50  2  10  1  2  3
51  2  17  5  4  15
52  1  7  2  3  4
53  2  12  3  2  11
54  2  20  7  6  18
55  2  11  2  3  4
56  2  13  3  2  1
57  2  11  2  1  10
58  2  18  6  7  2
59  2  20  7  6  5
60  2  11  2  1  9
61  2  17  5  4  3
62  2  14  4  5  6
63  2  15  4  5  6

Impropers

1  1  2  1  3  7
2  1  1  9  8  2
3  1  1  10  8  2
4  1  2  1  11  3
5  1  3  4  2  12
6  1  3  2  4  13
7  1  4  3  5  14
8  1  4  3  5  15
9  1  5  4  6  16
10  1  5  17  4  6
11  1  6  18  5  7
12  1  6  19  5  7
13  1  7  2  20  6
14  1  7  2  21  6
