LAMMPS data file Created by LigParGen - (Written by Leela S. Dodda)

      21 atoms
      21 bonds
      42 angles
      63 dihedrals
      14 impropers
 
      21 atom types
      21 bond types
      42 angle types
      63 dihedral types
      14 improper types
 
   -2.584230    47.415770 xlo xhi
    0.069690    50.069690 ylo yhi
   -1.797480    48.202520 zlo zhi

Masses

       1     12.011  
       2     12.011  
       3     12.011  
       4     12.011  
       5     12.011  
       6     12.011  
       7     12.011  
       8      1.008  
       9      1.008  
      10      1.008  
      11      1.008  
      12      1.008  
      13      1.008  
      14      1.008  
      15      1.008  
      16      1.008  
      17      1.008  
      18      1.008  
      19      1.008  
      20      1.008  
      21      1.008  

Pair Coeffs 

       1      0.066  3.5000000 
       2      0.066  3.5000000 
       3      0.066  3.5000000 
       4      0.066  3.5000000 
       5      0.066  3.5000000 
       6      0.066  3.5000000 
       7      0.066  3.5000000 
       8      0.030  2.5000000 
       9      0.030  2.5000000 
      10      0.030  2.5000000 
      11      0.030  2.5000000 
      12      0.030  2.5000000 
      13      0.030  2.5000000 
      14      0.030  2.5000000 
      15      0.030  2.5000000 
      16      0.030  2.5000000 
      17      0.030  2.5000000 
      18      0.030  2.5000000 
      19      0.030  2.5000000 
      20      0.030  2.5000000 
      21      0.030  2.5000000 

Bond Coeffs 

       1   268.0000     1.5290 
       2   268.0000     1.5290 
       3   268.0000     1.5290 
       4   268.0000     1.5290 
       5   268.0000     1.5290 
       6   268.0000     1.5290 
       7   340.0000     1.0900 
       8   340.0000     1.0900 
       9   340.0000     1.0900 
      10   340.0000     1.0900 
      11   340.0000     1.0900 
      12   340.0000     1.0900 
      13   340.0000     1.0900 
      14   340.0000     1.0900 
      15   340.0000     1.0900 
      16   340.0000     1.0900 
      17   340.0000     1.0900 
      18   340.0000     1.0900 
      19   340.0000     1.0900 
      20   340.0000     1.0900 
      21   268.0000     1.5290 

Angle Coeffs 

       1     58.350    112.700
       2     58.350    112.700
       3     58.350    112.700
       4     58.350    112.700
       5     58.350    112.700
       6     37.500    110.700
       7     37.500    110.700
       8     37.500    110.700
       9     37.500    110.700
      10     37.500    110.700
      11     37.500    110.700
      12     37.500    110.700
      13     37.500    110.700
      14     37.500    110.700
      15     37.500    110.700
      16     37.500    110.700
      17     37.500    110.700
      18     37.500    110.700
      19     37.500    110.700
      20     37.500    110.700
      21     37.500    110.700
      22     37.500    110.700
      23     33.000    107.800
      24     37.500    110.700
      25     33.000    107.800
      26     33.000    107.800
      27     58.350    112.700
      28     33.000    107.800
      29     33.000    107.800
      30     37.500    110.700
      31     58.350    112.700
      32     37.500    110.700
      33     33.000    107.800
      34     33.000    107.800
      35     37.500    110.700
      36     33.000    107.800
      37     37.500    110.700
      38     37.500    110.700
      39     37.500    110.700
      40     37.500    110.700
      41     58.350    112.700
      42     37.500    110.700

Dihedral Coeffs  

       1      1.300     -0.200      0.200      0.000 
       2      1.300     -0.200      0.200      0.000 
       3      1.300     -0.200      0.200      0.000 
       4      0.000      0.000      0.300      0.000 
       5      0.000      0.000      0.300      0.000 
       6      0.000      0.000      0.300      0.000 
       7      0.000      0.000      0.300      0.000 
       8      0.000      0.000      0.300      0.000 
       9      0.000      0.000      0.300      0.000 
      10      0.000      0.000      0.300      0.000 
      11      0.000      0.000      0.300      0.000 
      12      0.000      0.000      0.300      0.000 
      13      0.000      0.000      0.300      0.000 
      14      0.000      0.000      0.300      0.000 
      15      0.000      0.000      0.300      0.000 
      16      0.000      0.000      0.300      0.000 
      17      0.000      0.000      0.300      0.000 
      18      1.300     -0.200      0.200      0.000 
      19      1.300     -0.200      0.200      0.000 
      20      0.000      0.000      0.300      0.000 
      21      0.000      0.000      0.300      0.000 
      22      0.000      0.000      0.300      0.000 
      23      0.000      0.000      0.300      0.000 
      24      1.300     -0.200      0.200      0.000 
      25      0.000      0.000      0.300      0.000 
      26      0.000      0.000      0.300      0.000 
      27      0.000      0.000      0.300      0.000 
      28      0.000      0.000      0.300      0.000 
      29      0.000      0.000      0.300      0.000 
      30      0.000      0.000      0.300      0.000 
      31      0.000      0.000      0.300      0.000 
      32      0.000      0.000      0.300      0.000 
      33      0.000      0.000      0.300      0.000 
      34      0.000      0.000      0.300      0.000 
      35      0.000      0.000      0.300      0.000 
      36      0.000      0.000      0.300      0.000 
      37      0.000      0.000      0.300      0.000 
      38      0.000      0.000      0.300      0.000 
      39      0.000      0.000      0.300      0.000 
      40      0.000      0.000      0.300      0.000 
      41      0.000      0.000      0.300      0.000 
      42      1.300     -0.200      0.200      0.000 
      43      0.000      0.000      0.300      0.000 
      44      0.000      0.000      0.300      0.000 
      45      0.000      0.000      0.300      0.000 
      46      0.000      0.000      0.300      0.000 
      47      0.000      0.000      0.300      0.000 
      48      0.000      0.000      0.300      0.000 
      49      0.000      0.000      0.300      0.000 
      50      0.000      0.000      0.300      0.000 
      51      0.000      0.000      0.300      0.000 
      52      1.300     -0.200      0.200      0.000 
      53      0.000      0.000      0.300      0.000 
      54      0.000      0.000      0.300      0.000 
      55      0.000      0.000      0.300      0.000 
      56      0.000      0.000      0.300      0.000 
      57      0.000      0.000      0.300      0.000 
      58      0.000      0.000      0.300      0.000 
      59      0.000      0.000      0.300      0.000 
      60      0.000      0.000      0.300      0.000 
      61      0.000      0.000      0.300      0.000 
      62      0.000      0.000      0.300      0.000 
      63      0.000      0.000      0.300      0.000 

Improper Coeffs 

       1      0.000      -1       2 
       2      0.000      -1       2 
       3      0.000      -1       2 
       4      0.000      -1       2 
       5      0.000      -1       2 
       6      0.000      -1       2 
       7      0.000      -1       2 
       8      0.000      -1       2 
       9      0.000      -1       2 
      10      0.000      -1       2 
      11      0.000      -1       2 
      12      0.000      -1       2 
      13      0.000      -1       2 
      14      0.000      -1       2 

Atoms 

     1      1      1 -0.23320000    1.000  1.00000  0.00000
     2      1      2 -0.11090000   -0.531  1.00000  0.00000
     3      1      3 -0.16890000   -1.097  1.00000  1.42760
     4      1      4 -0.17290000   -0.923  2.34211  2.13619
     5      1      5 -0.17350000   -1.492  3.49268  1.31159
     6      1      6 -0.17270000   -0.927  3.51613 -0.10557
     7      1      7 -0.16840000   -1.098  2.17713 -0.80665
     8      1      8 0.08040000    1.384  0.13290  0.54814
     9      1      9 0.08040000    1.417  1.89884  0.46363
    10      1     10 0.08040000    1.384  0.94150 -1.02408
    11      1     11 0.09240000   -0.849  0.06969 -0.48900
    12      1     12 0.08670000   -0.629  0.20601  2.02134
    13      1     13 0.08670000   -2.168  0.76484  1.38025
    14      1     14 0.08700000    0.140  2.52312  2.33646
    15      1     15 0.08700000   -1.424  2.30746  3.11016
    16      1     16 0.08610000   -1.276  4.44429  1.81036
    17      1     17 0.08610000   -2.584  3.39744  1.26442
    18      1     18 0.08690000    0.135  3.78614 -0.07218
    19      1     19 0.08690000   -1.432  4.29769 -0.68515
    20      1     20 0.08670000   -0.631  2.21847 -1.79748
    21      1     21 0.08670000   -2.170  2.00422 -0.97318

Bonds 

     1      1      2      1
     2      2      3      2
     3      3      4      3
     4      4      5      4
     5      5      6      5
     6      6      7      2
     7      7      8      1
     8      8      9      1
     9      9     10      1
    10     10     11      2
    11     11     12      3
    12     12     13      3
    13     13     14      4
    14     14     15      4
    15     15     16      5
    16     16     17      5
    17     17     18      6
    18     18     19      6
    19     19     20      7
    20     20     21      7
    21     21      7      6

Angles 

     1      1      1      2      3
     2      2      2      3      4
     3      3      3      4      5
     4      4      4      5      6
     5      5      1      2      7
     6      6      2      1      8
     7      7      2      1      9
     8      8      2      1     10
     9      9      1      2     11
    10     10      2      3     12
    11     11      2      3     13
    12     12      3      4     14
    13     13      3      4     15
    14     14      4      5     16
    15     15      4      5     17
    16     16      5      6     18
    17     17      5      6     19
    18     18      2      7     20
    19     19      2      7     21
    20     20      7      2     11
    21     21      6      7     20
    22     22      5      4     14
    23     23      8      1     10
    24     24      7      6     18
    25     25     18      6     19
    26     26      9      1     10
    27     27      2      7      6
    28     28     20      7     21
    29     29     14      4     15
    30     30      6      7     21
    31     31      5      6      7
    32     32      6      5     17
    33     33     16      5     17
    34     34      8      1      9
    35     35      3      2     11
    36     36     12      3     13
    37     37      7      6     19
    38     38      5      4     15
    39     39      6      5     16
    40     40      4      3     12
    41     41      3      2      7
    42     42      4      3     13

Dihedrals

     1      1      4      3      2      1 
     2      2      5      4      3      2 
     3      3      6      5      4      3 
     4      4      8      1      2      3 
     5      5     20      7      2     11 
     6      6     16      5      6      7 
     7      7     12      3      2      7 
     8      8     21      7      6     18 
     9      9     20      7      2      1 
    10     10      9      1      2      3 
    11     11     19      6      5      4 
    12     12     14      4      3      2 
    13     13     14      4      3     12 
    14     14     21      7      2      1 
    15     15     18      6      5      4 
    16     16     20      7      6     19 
    17     17     19      6      5     17 
    18     18      6      7      2      3 
    19     19      6      7      2      1 
    20     20     16      5      4     15 
    21     21     13      3      2      7 
    22     22     14      4      3     13 
    23     23     15      4      3     12 
    24     24      7      6      5      4 
    25     25     18      6      5     16 
    26     26     19      6      7      2 
    27     27     12      3      4      5 
    28     28     21      7      6     19 
    29     29     11      2      7      6 
    30     30     12      3      2      1 
    31     31     21      7      6      5 
    32     32     16      5      4     14 
    33     33     21      7      2     11 
    34     34     17      5      6      7 
    35     35     15      4      3      2 
    36     36     13      3      4      5 
    37     37     21      7      2      3 
    38     38     13      3      2     11 
    39     39     15      4      3     13 
    40     40     10      1      2      7 
    41     41      9      1      2      7 
    42     42      5      6      7      2 
    43     43     17      5      4     14 
    44     44     19      6      5     16 
    45     45     11      2      1      8 
    46     46     16      5      4      3 
    47     47     18      6      5     17 
    48     48      8      1      2      7 
    49     49     20      7      2      3 
    50     50     10      1      2      3 
    51     51     17      5      4     15 
    52     52      7      2      3      4 
    53     53     12      3      2     11 
    54     54     20      7      6     18 
    55     55     11      2      3      4 
    56     56     13      3      2      1 
    57     57     11      2      1     10 
    58     58     18      6      7      2 
    59     59     20      7      6      5 
    60     60     11      2      1      9 
    61     61     17      5      4      3 
    62     62     14      4      5      6 
    63     63     15      4      5      6 

Impropers

     1      1      2      1      3      7 
     2      2      1      9      8      2 
     3      3      1     10      8      2 
     4      4      2      1     11      3 
     5      5      3      4      2     12 
     6      6      3      2      4     13 
     7      7      4      3      5     14 
     8      8      4      3      5     15 
     9      9      5      4      6     16 
    10     10      5     17      4      6 
    11     11      6     18      5      7 
    12     12      6     19      5      7 
    13     13      7      2     20      6 
    14     14      7      2     21      6 

