#C18_amine

58 atoms
4 atom types

57 bonds
4 bond types

111 angles
6 angle types

159 dihedrals
6 dihedral types

37 impropers
1 improper types

-18.50757  31.49243  xlo xhi
0  50.11166  ylo yhi
-1.02656  48.97344  zlo zhi

Masses

1  12.011
2  14.007
3  1.008
4  1.008

Pair Coeffs

1  0.066  3.5
2  0.17  3.3
3  0.03  2.5
4  0.0  0.0

Bond Coeffs

1  268.0  1.529
2  382.0  1.448
3  340.0  1.09
4  434.0  1.01

Angle Coeffs

1  58.35  112.7
2  56.2  109.47
3  37.5  110.7
4  35.0  109.5
5  33.0  107.8
6  43.6  106.4

Dihedral Coeffs

1  1.3  -0.2  0.2  0.0
2  2.392  -0.674  0.55  0.0
3  0.0  0.0  0.3  0.0
4  -0.19  -0.417  0.418  0.0
5  0.0  0.0  0.4  0.0
6  -1.013  -0.709  0.473  0.0

Improper Coeffs

1  0.0  -1.0  2.0

Atoms # full

1  1  1  -0.2388   1   1   0
2  1  1  -0.1796  -0.52   1   0
3  1  1  -0.1789  -1.07   1   1.42424
4  1  1  -0.1795  -2.597   1.0018   1.42588
5  1  1  -0.1796  -3.136   1.00359   2.8536
6  1  1  -0.1796  -4.661   1.00359   2.86013
7  1  1  -0.1798  -5.194   1.00358   4.28906
8  1  1  -0.1796  -6.718   1.00538   4.29559
9  1  1  -0.1797  -7.248   1.00717   5.72442
10  1  1  -0.1798  -8.772   1.01078   5.73095
11  1  1  -0.1797  -9.303   1.01437   7.1598
12  1  1  -0.1796  -10.827   1.01978   7.16795
13  1  1  -0.1796  -11.358   1.02517   8.59692
14  1  1  -0.1797  -12.883   1.02879   8.60671
15  1  1  -0.1785  -13.414   1.03239   10.03717
16  1  1  -0.1794  -14.941   1.03781   10.0486
17  1  1  -0.1816  -15.475   1.03961   11.48116
18  1  1   0.0884  -17   1.04323   11.49422
19  1  2  -0.9268  -17.49   1.04664   12.86663
20  1  3   0.0808   1.379   0.9987  -1.02656
21  1  3   0.0808   1.389   0.11166   0.50793
22  1  3   0.0808   1.39   1.88772   0.50731
23  1  3   0.0884  -0.882   0.11627  -0.53839
24  1  3   0.0884  -0.882   1.88272  -0.53919
25  1  3   0.0895  -0.701   1.88252   1.96107
26  1  3   0.0895  -0.703   0.11658   1.96114
27  1  3   0.0895  -2.968   0.11813   0.89289
28  1  3   0.0895  -2.966   1.88492   0.89038
29  1  3   0.0896  -2.765   1.88779   3.38675
30  1  3   0.0896  -2.765   0.12068   3.389
31  1  3   0.0897  -5.033   0.11992   2.32761
32  1  3   0.0897  -5.033   1.88656   2.32664
33  1  3   0.0898  -4.821   1.88724   4.82187
34  1  3   0.0898  -4.821   0.12058   4.82249
35  1  3   0.0899  -7.09   0.12114   3.76344
36  1  3   0.0899  -7.089   1.88815   3.76149
37  1  3   0.09  -6.875   1.89021   6.2569
38  1  3   0.09  -6.878   0.12333   6.25795
39  1  3   0.0898  -9.147   0.12773   5.19884
40  1  3   0.0898  -9.143   1.89392   5.1959
41  1  3   0.09  -8.927   1.89715   7.69098
42  1  3   0.09  -8.933   0.13023   7.69308
43  1  3   0.0898  -11.202   0.13639   6.63676
44  1  3   0.0898  -11.196   1.90326   6.63236
45  1  3   0.0902  -10.983   1.90928   9.12657
46  1  3   0.0902  -10.986   0.14197   9.13079
47  1  3   0.0897  -13.256   0.14495   8.07491
48  1  3   0.0897  -13.253   1.91134   8.07139
49  1  3   0.0911  -13.037   1.9161   10.56659
50  1  3   0.0911  -13.042   0.14959   10.56995
51  1  3   0.0893  -15.314   0.1546   9.51665
52  1  3   0.0893  -15.31   1.92183   9.51512
53  1  3   0.0985  -15.094   1.92235   12.01103
54  1  3   0.0985  -15.097   0.15575   12.01111
55  1  3   0.0776  -17.384   0.15992   10.97201
56  1  3   0.0776  -17.378   1.93149   10.97594
57  1  4   0.3322  -17.161   0.21109   13.3493
58  1  4   0.3322  -18.508   0.99133   12.86196

Bonds

1  1  2  1
2  1  3  2
3  1  4  3
4  1  5  4
5  1  6  5
6  1  7  6
7  1  8  7
8  1  9  8
9  1  10  9
10  1  11  10
11  1  12  11
12  1  13  12
13  1  14  13
14  1  15  14
15  1  16  15
16  1  17  16
17  1  18  17
18  2  19  18
19  3  20  1
20  3  21  1
21  3  22  1
22  3  23  2
23  3  24  2
24  3  25  3
25  3  26  3
26  3  27  4
27  3  28  4
28  3  29  5
29  3  30  5
30  3  31  6
31  3  32  6
32  3  33  7
33  3  34  7
34  3  35  8
35  3  36  8
36  3  37  9
37  3  38  9
38  3  39  10
39  3  40  10
40  3  41  11
41  3  42  11
42  3  43  12
43  3  44  12
44  3  45  13
45  3  46  13
46  3  47  14
47  3  48  14
48  3  49  15
49  3  50  15
50  3  51  16
51  3  52  16
52  3  53  17
53  3  54  17
54  3  55  18
55  3  56  18
56  4  57  19
57  4  58  19

Angles

1  1  1  2  3
2  1  2  3  4
3  1  3  4  5
4  1  4  5  6
5  1  5  6  7
6  1  6  7  8
7  1  7  8  9
8  1  8  9  10
9  1  9  10  11
10  1  10  11  12
11  1  11  12  13
12  1  12  13  14
13  1  13  14  15
14  1  14  15  16
15  1  15  16  17
16  1  16  17  18
17  2  17  18  19
18  3  2  1  20
19  3  2  1  21
20  3  2  1  22
21  3  1  2  23
22  3  1  2  24
23  3  2  3  25
24  3  2  3  26
25  3  3  4  27
26  3  3  4  28
27  3  4  5  29
28  3  4  5  30
29  3  5  6  31
30  3  5  6  32
31  3  6  7  33
32  3  6  7  34
33  3  7  8  35
34  3  7  8  36
35  3  8  9  37
36  3  8  9  38
37  3  9  10  39
38  3  9  10  40
39  3  10  11  41
40  3  10  11  42
41  3  11  12  43
42  3  11  12  44
43  3  12  13  45
44  3  12  13  46
45  3  13  14  47
46  3  13  14  48
47  3  14  15  49
48  3  14  15  50
49  3  15  16  51
50  3  15  16  52
51  3  16  17  53
52  3  16  17  54
53  3  17  18  55
54  3  17  18  56
55  4  18  19  57
56  4  18  19  58
57  3  15  14  47
58  3  16  15  50
59  3  12  11  42
60  3  18  17  54
61  5  33  7  34
62  5  27  4  28
63  5  51  16  52
64  3  16  15  49
65  5  45  13  46
66  5  20  1  21
67  3  5  4  27
68  3  7  6  32
69  3  7  6  31
70  3  6  5  30
71  5  49  15  50
72  3  14  13  45
73  3  5  4  28
74  5  41  11  42
75  3  9  8  36
76  5  39  10  40
77  5  20  1  22
78  3  11  10  40
79  5  29  5  30
80  3  17  16  52
81  5  35  8  36
82  5  43  12  44
83  3  4  3  25
84  6  57  19  58
85  3  8  7  33
86  3  14  13  46
87  3  13  12  43
88  3  4  3  26
89  3  8  7  34
90  4  19  18  55
91  3  18  17  53
92  3  6  5  29
93  5  55  18  56
94  5  25  3  26
95  5  31  6  32
96  3  11  10  39
97  5  53  17  54
98  5  47  14  48
99  3  10  9  38
100  3  3  2  23
101  3  9  8  35
102  3  10  9  37
103  5  37  9  38
104  3  15  14  48
105  5  23  2  24
106  3  13  12  44
107  4  19  18  56
108  5  21  1  22
109  3  3  2  24
110  3  17  16  51
111  3  12  11  41

Dihedrals

1  1  4  3  2  1
2  1  5  4  3  2
3  1  6  5  4  3
4  1  7  6  5  4
5  1  8  7  6  5
6  1  9  8  7  6
7  1  10  9  8  7
8  1  11  10  9  8
9  1  12  11  10  9
10  1  13  12  11  10
11  1  14  13  12  11
12  1  15  14  13  12
13  1  16  15  14  13
14  1  17  16  15  14
15  1  18  17  16  15
16  2  19  18  17  16
17  3  20  1  2  3
18  4  57  19  18  17
19  3  52  16  15  50
20  3  25  3  4  5
21  3  28  4  3  2
22  3  42  11  12  13
23  3  29  5  4  28
24  3  30  5  4  27
25  3  54  17  16  15
26  3  51  16  17  18
27  3  35  8  9  10
28  3  38  9  8  7
29  5  58  19  18  55
30  6  54  17  18  19
31  3  42  11  10  39
32  3  41  11  10  40
33  3  23  2  1  21
34  3  51  16  15  14
35  3  45  13  14  15
36  3  54  17  16  51
37  3  53  17  16  52
38  3  53  17  16  15
39  3  38  9  10  11
40  3  48  14  13  12
41  3  26  3  2  1
42  3  33  7  6  31
43  3  55  18  17  54
44  3  23  2  3  4
45  3  47  14  13  45
46  3  32  6  7  8
47  3  27  4  3  25
48  3  46  13  12  44
49  3  32  6  5  30
50  3  40  10  9  38
51  5  58  19  18  56
52  3  35  8  7  33
53  3  40  10  9  37
54  3  40  10  9  8
55  3  37  9  10  11
56  3  45  13  12  11
57  3  24  2  1  22
58  3  27  4  3  26
59  3  51  16  15  50
60  3  52  16  15  49
61  3  36  8  9  10
62  3  30  5  4  3
63  3  34  7  8  9
64  3  33  7  6  5
65  3  53  17  16  51
66  3  51  16  15  49
67  3  43  12  11  10
68  3  39  10  9  8
69  3  42  11  10  40
70  3  29  5  4  27
71  3  37  9  8  35
72  3  52  16  15  14
73  3  49  15  16  17
74  3  47  14  13  12
75  3  26  3  4  5
76  3  45  13  12  44
77  3  46  13  12  43
78  3  21  1  2  3
79  3  27  4  5  6
80  3  36  8  7  33
81  3  35  8  7  34
82  3  50  15  14  48
83  3  45  13  12  43
84  3  39  10  9  37
85  3  44  12  11  42
86  3  49  15  14  48
87  3  50  15  14  47
88  5  57  19  18  55
89  3  48  14  13  46
90  3  54  17  16  52
91  3  34  7  6  32
92  3  28  4  3  26
93  3  24  2  3  4
94  3  28  4  3  25
95  3  28  4  5  6
96  3  30  5  6  7
97  3  41  11  10  39
98  3  24  2  1  21
99  3  23  2  1  22
100  3  31  6  7  8
101  3  34  7  6  5
102  3  27  4  3  2
103  3  32  6  5  4
104  3  49  15  14  13
105  3  29  5  6  7
106  3  43  12  11  42
107  3  56  18  17  54
108  3  55  18  17  16
109  3  46  13  14  15
110  3  43  12  11  41
111  3  37  9  8  7
112  3  25  3  2  23
113  3  35  8  7  6
114  3  56  18  17  53
115  3  39  10  9  38
116  3  26  3  2  24
117  3  31  6  5  29
118  3  22  1  2  3
119  3  24  2  1  20
120  3  37  9  8  36
121  3  38  9  8  35
122  3  55  18  17  53
123  3  36  8  7  6
124  3  40  10  11  12
125  3  32  6  5  29
126  3  31  6  5  30
127  3  33  7  8  9
128  3  49  15  14  47
129  3  43  12  13  14
130  3  52  16  17  18
131  3  44  12  13  14
132  3  46  13  12  11
133  3  30  5  4  28
134  4  58  19  18  17
135  3  26  3  2  23
136  3  25  3  2  24
137  3  39  10  11  12
138  3  36  8  7  34
139  3  29  5  4  3
140  3  48  14  15  16
141  3  44  12  11  41
142  3  50  15  16  17
143  3  23  2  1  20
144  3  42  11  10  9
145  3  25  3  2  1
146  3  34  7  6  31
147  3  33  7  6  32
148  3  47  14  13  46
149  3  48  14  13  45
150  5  57  19  18  56
151  3  47  14  15  16
152  3  50  15  14  13
153  3  31  6  5  4
154  3  38  9  8  36
155  3  41  11  10  9
156  3  44  12  11  10
157  3  41  11  12  13
158  3  56  18  17  16
159  6  53  17  18  19

Impropers

1  1  1  2  20  21
2  1  1  2  20  22
3  1  2  1  3  23
4  1  2  1  3  24
5  1  3  25  2  4
6  1  3  26  4  2
7  1  4  27  5  3
8  1  4  3  28  5
9  1  5  4  29  6
10  1  5  4  30  6
11  1  6  7  5  31
12  1  6  5  7  32
13  1  7  33  6  8
14  1  7  34  6  8
15  1  8  9  35  7
16  1  8  9  36  7
17  1  9  10  37  8
18  1  9  10  38  8
19  1  10  9  11  39
20  1  10  9  11  40
21  1  11  41  10  12
22  1  11  42  12  10
23  1  12  43  13  11
24  1  12  11  44  13
25  1  13  12  45  14
26  1  13  12  46  14
27  1  14  15  13  47
28  1  14  13  15  48
29  1  15  49  14  16
30  1  15  50  14  16
31  1  16  17  51  15
32  1  16  17  52  15
33  1  17  18  53  16
34  1  17  18  54  16
35  1  18  17  19  55
36  1  18  17  19  56
37  1  19  57  58  18
