LAMMPS data file Created by LigParGen - (Written by Leela S. Dodda)

      58 atoms
      57 bonds
     111 angles
     159 dihedrals
      37 impropers
 
      58 atom types
      57 bond types
     111 angle types
     159 dihedral types
      37 improper types
 
  -18.507570    31.492430 xlo xhi
    0.111660    50.111660 ylo yhi
   -1.026560    48.973440 zlo zhi

Masses

       1     12.011  
       2     12.011  
       3     12.011  
       4     12.011  
       5     12.011  
       6     12.011  
       7     12.011  
       8     12.011  
       9     12.011  
      10     12.011  
      11     12.011  
      12     12.011  
      13     12.011  
      14     12.011  
      15     12.011  
      16     12.011  
      17     12.011  
      18     12.011  
      19     14.007  
      20      1.008  
      21      1.008  
      22      1.008  
      23      1.008  
      24      1.008  
      25      1.008  
      26      1.008  
      27      1.008  
      28      1.008  
      29      1.008  
      30      1.008  
      31      1.008  
      32      1.008  
      33      1.008  
      34      1.008  
      35      1.008  
      36      1.008  
      37      1.008  
      38      1.008  
      39      1.008  
      40      1.008  
      41      1.008  
      42      1.008  
      43      1.008  
      44      1.008  
      45      1.008  
      46      1.008  
      47      1.008  
      48      1.008  
      49      1.008  
      50      1.008  
      51      1.008  
      52      1.008  
      53      1.008  
      54      1.008  
      55      1.008  
      56      1.008  
      57      1.008  
      58      1.008  

Pair Coeffs 

       1      0.066  3.5000000 
       2      0.066  3.5000000 
       3      0.066  3.5000000 
       4      0.066  3.5000000 
       5      0.066  3.5000000 
       6      0.066  3.5000000 
       7      0.066  3.5000000 
       8      0.066  3.5000000 
       9      0.066  3.5000000 
      10      0.066  3.5000000 
      11      0.066  3.5000000 
      12      0.066  3.5000000 
      13      0.066  3.5000000 
      14      0.066  3.5000000 
      15      0.066  3.5000000 
      16      0.066  3.5000000 
      17      0.066  3.5000000 
      18      0.066  3.5000000 
      19      0.170  3.3000000 
      20      0.030  2.5000000 
      21      0.030  2.5000000 
      22      0.030  2.5000000 
      23      0.030  2.5000000 
      24      0.030  2.5000000 
      25      0.030  2.5000000 
      26      0.030  2.5000000 
      27      0.030  2.5000000 
      28      0.030  2.5000000 
      29      0.030  2.5000000 
      30      0.030  2.5000000 
      31      0.030  2.5000000 
      32      0.030  2.5000000 
      33      0.030  2.5000000 
      34      0.030  2.5000000 
      35      0.030  2.5000000 
      36      0.030  2.5000000 
      37      0.030  2.5000000 
      38      0.030  2.5000000 
      39      0.030  2.5000000 
      40      0.030  2.5000000 
      41      0.030  2.5000000 
      42      0.030  2.5000000 
      43      0.030  2.5000000 
      44      0.030  2.5000000 
      45      0.030  2.5000000 
      46      0.030  2.5000000 
      47      0.030  2.5000000 
      48      0.030  2.5000000 
      49      0.030  2.5000000 
      50      0.030  2.5000000 
      51      0.030  2.5000000 
      52      0.030  2.5000000 
      53      0.030  2.5000000 
      54      0.030  2.5000000 
      55      0.030  2.5000000 
      56      0.030  2.5000000 
      57      0.000  0.0000000 
      58      0.000  0.0000000 

Bond Coeffs 

       1   268.0000     1.5290 
       2   268.0000     1.5290 
       3   268.0000     1.5290 
       4   268.0000     1.5290 
       5   268.0000     1.5290 
       6   268.0000     1.5290 
       7   268.0000     1.5290 
       8   268.0000     1.5290 
       9   268.0000     1.5290 
      10   268.0000     1.5290 
      11   268.0000     1.5290 
      12   268.0000     1.5290 
      13   268.0000     1.5290 
      14   268.0000     1.5290 
      15   268.0000     1.5290 
      16   268.0000     1.5290 
      17   268.0000     1.5290 
      18   382.0000     1.4480 
      19   340.0000     1.0900 
      20   340.0000     1.0900 
      21   340.0000     1.0900 
      22   340.0000     1.0900 
      23   340.0000     1.0900 
      24   340.0000     1.0900 
      25   340.0000     1.0900 
      26   340.0000     1.0900 
      27   340.0000     1.0900 
      28   340.0000     1.0900 
      29   340.0000     1.0900 
      30   340.0000     1.0900 
      31   340.0000     1.0900 
      32   340.0000     1.0900 
      33   340.0000     1.0900 
      34   340.0000     1.0900 
      35   340.0000     1.0900 
      36   340.0000     1.0900 
      37   340.0000     1.0900 
      38   340.0000     1.0900 
      39   340.0000     1.0900 
      40   340.0000     1.0900 
      41   340.0000     1.0900 
      42   340.0000     1.0900 
      43   340.0000     1.0900 
      44   340.0000     1.0900 
      45   340.0000     1.0900 
      46   340.0000     1.0900 
      47   340.0000     1.0900 
      48   340.0000     1.0900 
      49   340.0000     1.0900 
      50   340.0000     1.0900 
      51   340.0000     1.0900 
      52   340.0000     1.0900 
      53   340.0000     1.0900 
      54   340.0000     1.0900 
      55   340.0000     1.0900 
      56   434.0000     1.0100 
      57   434.0000     1.0100 

Angle Coeffs 

       1     58.350    112.700
       2     58.350    112.700
       3     58.350    112.700
       4     58.350    112.700
       5     58.350    112.700
       6     58.350    112.700
       7     58.350    112.700
       8     58.350    112.700
       9     58.350    112.700
      10     58.350    112.700
      11     58.350    112.700
      12     58.350    112.700
      13     58.350    112.700
      14     58.350    112.700
      15     58.350    112.700
      16     58.350    112.700
      17     56.200    109.470
      18     37.500    110.700
      19     37.500    110.700
      20     37.500    110.700
      21     37.500    110.700
      22     37.500    110.700
      23     37.500    110.700
      24     37.500    110.700
      25     37.500    110.700
      26     37.500    110.700
      27     37.500    110.700
      28     37.500    110.700
      29     37.500    110.700
      30     37.500    110.700
      31     37.500    110.700
      32     37.500    110.700
      33     37.500    110.700
      34     37.500    110.700
      35     37.500    110.700
      36     37.500    110.700
      37     37.500    110.700
      38     37.500    110.700
      39     37.500    110.700
      40     37.500    110.700
      41     37.500    110.700
      42     37.500    110.700
      43     37.500    110.700
      44     37.500    110.700
      45     37.500    110.700
      46     37.500    110.700
      47     37.500    110.700
      48     37.500    110.700
      49     37.500    110.700
      50     37.500    110.700
      51     37.500    110.700
      52     37.500    110.700
      53     37.500    110.700
      54     37.500    110.700
      55     35.000    109.500
      56     35.000    109.500
      57     37.500    110.700
      58     37.500    110.700
      59     37.500    110.700
      60     37.500    110.700
      61     33.000    107.800
      62     33.000    107.800
      63     33.000    107.800
      64     37.500    110.700
      65     33.000    107.800
      66     33.000    107.800
      67     37.500    110.700
      68     37.500    110.700
      69     37.500    110.700
      70     37.500    110.700
      71     33.000    107.800
      72     37.500    110.700
      73     37.500    110.700
      74     33.000    107.800
      75     37.500    110.700
      76     33.000    107.800
      77     33.000    107.800
      78     37.500    110.700
      79     33.000    107.800
      80     37.500    110.700
      81     33.000    107.800
      82     33.000    107.800
      83     37.500    110.700
      84     43.600    106.400
      85     37.500    110.700
      86     37.500    110.700
      87     37.500    110.700
      88     37.500    110.700
      89     37.500    110.700
      90     35.000    109.500
      91     37.500    110.700
      92     37.500    110.700
      93     33.000    107.800
      94     33.000    107.800
      95     33.000    107.800
      96     37.500    110.700
      97     33.000    107.800
      98     33.000    107.800
      99     37.500    110.700
     100     37.500    110.700
     101     37.500    110.700
     102     37.500    110.700
     103     33.000    107.800
     104     37.500    110.700
     105     33.000    107.800
     106     37.500    110.700
     107     35.000    109.500
     108     33.000    107.800
     109     37.500    110.700
     110     37.500    110.700
     111     37.500    110.700

Dihedral Coeffs  

       1      1.300     -0.200      0.200      0.000 
       2      1.300     -0.200      0.200      0.000 
       3      1.300     -0.200      0.200      0.000 
       4      1.300     -0.200      0.200      0.000 
       5      1.300     -0.200      0.200      0.000 
       6      1.300     -0.200      0.200      0.000 
       7      1.300     -0.200      0.200      0.000 
       8      1.300     -0.200      0.200      0.000 
       9      1.300     -0.200      0.200      0.000 
      10      1.300     -0.200      0.200      0.000 
      11      1.300     -0.200      0.200      0.000 
      12      1.300     -0.200      0.200      0.000 
      13      1.300     -0.200      0.200      0.000 
      14      1.300     -0.200      0.200      0.000 
      15      1.300     -0.200      0.200      0.000 
      16      2.392     -0.674      0.550      0.000 
      17      0.000      0.000      0.300      0.000 
      18     -0.190     -0.417      0.418      0.000 
      19      0.000      0.000      0.300      0.000 
      20      0.000      0.000      0.300      0.000 
      21      0.000      0.000      0.300      0.000 
      22      0.000      0.000      0.300      0.000 
      23      0.000      0.000      0.300      0.000 
      24      0.000      0.000      0.300      0.000 
      25      0.000      0.000      0.300      0.000 
      26      0.000      0.000      0.300      0.000 
      27      0.000      0.000      0.300      0.000 
      28      0.000      0.000      0.300      0.000 
      29      0.000      0.000      0.400      0.000 
      30     -1.013     -0.709      0.473      0.000 
      31      0.000      0.000      0.300      0.000 
      32      0.000      0.000      0.300      0.000 
      33      0.000      0.000      0.300      0.000 
      34      0.000      0.000      0.300      0.000 
      35      0.000      0.000      0.300      0.000 
      36      0.000      0.000      0.300      0.000 
      37      0.000      0.000      0.300      0.000 
      38      0.000      0.000      0.300      0.000 
      39      0.000      0.000      0.300      0.000 
      40      0.000      0.000      0.300      0.000 
      41      0.000      0.000      0.300      0.000 
      42      0.000      0.000      0.300      0.000 
      43      0.000      0.000      0.300      0.000 
      44      0.000      0.000      0.300      0.000 
      45      0.000      0.000      0.300      0.000 
      46      0.000      0.000      0.300      0.000 
      47      0.000      0.000      0.300      0.000 
      48      0.000      0.000      0.300      0.000 
      49      0.000      0.000      0.300      0.000 
      50      0.000      0.000      0.300      0.000 
      51      0.000      0.000      0.400      0.000 
      52      0.000      0.000      0.300      0.000 
      53      0.000      0.000      0.300      0.000 
      54      0.000      0.000      0.300      0.000 
      55      0.000      0.000      0.300      0.000 
      56      0.000      0.000      0.300      0.000 
      57      0.000      0.000      0.300      0.000 
      58      0.000      0.000      0.300      0.000 
      59      0.000      0.000      0.300      0.000 
      60      0.000      0.000      0.300      0.000 
      61      0.000      0.000      0.300      0.000 
      62      0.000      0.000      0.300      0.000 
      63      0.000      0.000      0.300      0.000 
      64      0.000      0.000      0.300      0.000 
      65      0.000      0.000      0.300      0.000 
      66      0.000      0.000      0.300      0.000 
      67      0.000      0.000      0.300      0.000 
      68      0.000      0.000      0.300      0.000 
      69      0.000      0.000      0.300      0.000 
      70      0.000      0.000      0.300      0.000 
      71      0.000      0.000      0.300      0.000 
      72      0.000      0.000      0.300      0.000 
      73      0.000      0.000      0.300      0.000 
      74      0.000      0.000      0.300      0.000 
      75      0.000      0.000      0.300      0.000 
      76      0.000      0.000      0.300      0.000 
      77      0.000      0.000      0.300      0.000 
      78      0.000      0.000      0.300      0.000 
      79      0.000      0.000      0.300      0.000 
      80      0.000      0.000      0.300      0.000 
      81      0.000      0.000      0.300      0.000 
      82      0.000      0.000      0.300      0.000 
      83      0.000      0.000      0.300      0.000 
      84      0.000      0.000      0.300      0.000 
      85      0.000      0.000      0.300      0.000 
      86      0.000      0.000      0.300      0.000 
      87      0.000      0.000      0.300      0.000 
      88      0.000      0.000      0.400      0.000 
      89      0.000      0.000      0.300      0.000 
      90      0.000      0.000      0.300      0.000 
      91      0.000      0.000      0.300      0.000 
      92      0.000      0.000      0.300      0.000 
      93      0.000      0.000      0.300      0.000 
      94      0.000      0.000      0.300      0.000 
      95      0.000      0.000      0.300      0.000 
      96      0.000      0.000      0.300      0.000 
      97      0.000      0.000      0.300      0.000 
      98      0.000      0.000      0.300      0.000 
      99      0.000      0.000      0.300      0.000 
     100      0.000      0.000      0.300      0.000 
     101      0.000      0.000      0.300      0.000 
     102      0.000      0.000      0.300      0.000 
     103      0.000      0.000      0.300      0.000 
     104      0.000      0.000      0.300      0.000 
     105      0.000      0.000      0.300      0.000 
     106      0.000      0.000      0.300      0.000 
     107      0.000      0.000      0.300      0.000 
     108      0.000      0.000      0.300      0.000 
     109      0.000      0.000      0.300      0.000 
     110      0.000      0.000      0.300      0.000 
     111      0.000      0.000      0.300      0.000 
     112      0.000      0.000      0.300      0.000 
     113      0.000      0.000      0.300      0.000 
     114      0.000      0.000      0.300      0.000 
     115      0.000      0.000      0.300      0.000 
     116      0.000      0.000      0.300      0.000 
     117      0.000      0.000      0.300      0.000 
     118      0.000      0.000      0.300      0.000 
     119      0.000      0.000      0.300      0.000 
     120      0.000      0.000      0.300      0.000 
     121      0.000      0.000      0.300      0.000 
     122      0.000      0.000      0.300      0.000 
     123      0.000      0.000      0.300      0.000 
     124      0.000      0.000      0.300      0.000 
     125      0.000      0.000      0.300      0.000 
     126      0.000      0.000      0.300      0.000 
     127      0.000      0.000      0.300      0.000 
     128      0.000      0.000      0.300      0.000 
     129      0.000      0.000      0.300      0.000 
     130      0.000      0.000      0.300      0.000 
     131      0.000      0.000      0.300      0.000 
     132      0.000      0.000      0.300      0.000 
     133      0.000      0.000      0.300      0.000 
     134     -0.190     -0.417      0.418      0.000 
     135      0.000      0.000      0.300      0.000 
     136      0.000      0.000      0.300      0.000 
     137      0.000      0.000      0.300      0.000 
     138      0.000      0.000      0.300      0.000 
     139      0.000      0.000      0.300      0.000 
     140      0.000      0.000      0.300      0.000 
     141      0.000      0.000      0.300      0.000 
     142      0.000      0.000      0.300      0.000 
     143      0.000      0.000      0.300      0.000 
     144      0.000      0.000      0.300      0.000 
     145      0.000      0.000      0.300      0.000 
     146      0.000      0.000      0.300      0.000 
     147      0.000      0.000      0.300      0.000 
     148      0.000      0.000      0.300      0.000 
     149      0.000      0.000      0.300      0.000 
     150      0.000      0.000      0.400      0.000 
     151      0.000      0.000      0.300      0.000 
     152      0.000      0.000      0.300      0.000 
     153      0.000      0.000      0.300      0.000 
     154      0.000      0.000      0.300      0.000 
     155      0.000      0.000      0.300      0.000 
     156      0.000      0.000      0.300      0.000 
     157      0.000      0.000      0.300      0.000 
     158      0.000      0.000      0.300      0.000 
     159     -1.013     -0.709      0.473      0.000 

Improper Coeffs 

       1      0.000      -1       2 
       2      0.000      -1       2 
       3      0.000      -1       2 
       4      0.000      -1       2 
       5      0.000      -1       2 
       6      0.000      -1       2 
       7      0.000      -1       2 
       8      0.000      -1       2 
       9      0.000      -1       2 
      10      0.000      -1       2 
      11      0.000      -1       2 
      12      0.000      -1       2 
      13      0.000      -1       2 
      14      0.000      -1       2 
      15      0.000      -1       2 
      16      0.000      -1       2 
      17      0.000      -1       2 
      18      0.000      -1       2 
      19      0.000      -1       2 
      20      0.000      -1       2 
      21      0.000      -1       2 
      22      0.000      -1       2 
      23      0.000      -1       2 
      24      0.000      -1       2 
      25      0.000      -1       2 
      26      0.000      -1       2 
      27      0.000      -1       2 
      28      0.000      -1       2 
      29      0.000      -1       2 
      30      0.000      -1       2 
      31      0.000      -1       2 
      32      0.000      -1       2 
      33      0.000      -1       2 
      34      0.000      -1       2 
      35      0.000      -1       2 
      36      0.000      -1       2 
      37      0.000      -1       2 

Atoms 

     1      1      1 -0.23880000    1.000  1.00000  0.00000
     2      1      2 -0.17960000   -0.520  1.00000  0.00000
     3      1      3 -0.17890000   -1.070  1.00000  1.42424
     4      1      4 -0.17950000   -2.597  1.00180  1.42588
     5      1      5 -0.17960000   -3.136  1.00359  2.85360
     6      1      6 -0.17960000   -4.661  1.00359  2.86013
     7      1      7 -0.17980000   -5.194  1.00358  4.28906
     8      1      8 -0.17960000   -6.718  1.00538  4.29559
     9      1      9 -0.17970000   -7.248  1.00717  5.72442
    10      1     10 -0.17980000   -8.772  1.01078  5.73095
    11      1     11 -0.17970000   -9.303  1.01437  7.15980
    12      1     12 -0.17960000  -10.827  1.01978  7.16795
    13      1     13 -0.17960000  -11.358  1.02517  8.59692
    14      1     14 -0.17970000  -12.883  1.02879  8.60671
    15      1     15 -0.17850000  -13.414  1.03239 10.03717
    16      1     16 -0.17940000  -14.941  1.03781 10.04860
    17      1     17 -0.18160000  -15.475  1.03961 11.48116
    18      1     18 0.08840000  -17.000  1.04323 11.49422
    19      1     19 -0.92680000  -17.490  1.04664 12.86663
    20      1     20 0.08080000    1.379  0.99870 -1.02656
    21      1     21 0.08080000    1.389  0.11166  0.50793
    22      1     22 0.08080000    1.390  1.88772  0.50731
    23      1     23 0.08840000   -0.882  0.11627 -0.53839
    24      1     24 0.08840000   -0.882  1.88272 -0.53919
    25      1     25 0.08950000   -0.701  1.88252  1.96107
    26      1     26 0.08950000   -0.703  0.11658  1.96114
    27      1     27 0.08950000   -2.968  0.11813  0.89289
    28      1     28 0.08950000   -2.966  1.88492  0.89038
    29      1     29 0.08960000   -2.765  1.88779  3.38675
    30      1     30 0.08960000   -2.765  0.12068  3.38900
    31      1     31 0.08970000   -5.033  0.11992  2.32761
    32      1     32 0.08970000   -5.033  1.88656  2.32664
    33      1     33 0.08980000   -4.821  1.88724  4.82187
    34      1     34 0.08980000   -4.821  0.12058  4.82249
    35      1     35 0.08990000   -7.090  0.12114  3.76344
    36      1     36 0.08990000   -7.089  1.88815  3.76149
    37      1     37 0.09000000   -6.875  1.89021  6.25690
    38      1     38 0.09000000   -6.878  0.12333  6.25795
    39      1     39 0.08980000   -9.147  0.12773  5.19884
    40      1     40 0.08980000   -9.143  1.89392  5.19590
    41      1     41 0.09000000   -8.927  1.89715  7.69098
    42      1     42 0.09000000   -8.933  0.13023  7.69308
    43      1     43 0.08980000  -11.202  0.13639  6.63676
    44      1     44 0.08980000  -11.196  1.90326  6.63236
    45      1     45 0.09020000  -10.983  1.90928  9.12657
    46      1     46 0.09020000  -10.986  0.14197  9.13079
    47      1     47 0.08970000  -13.256  0.14495  8.07491
    48      1     48 0.08970000  -13.253  1.91134  8.07139
    49      1     49 0.09110000  -13.037  1.91610 10.56659
    50      1     50 0.09110000  -13.042  0.14959 10.56995
    51      1     51 0.08930000  -15.314  0.15460  9.51665
    52      1     52 0.08930000  -15.310  1.92183  9.51512
    53      1     53 0.09850000  -15.094  1.92235 12.01103
    54      1     54 0.09850000  -15.097  0.15575 12.01111
    55      1     55 0.07760000  -17.384  0.15992 10.97201
    56      1     56 0.07760000  -17.378  1.93149 10.97594
    57      1     57 0.33220000  -17.161  0.21109 13.34930
    58      1     58 0.33220000  -18.508  0.99133 12.86196

Bonds 

     1      1      2      1
     2      2      3      2
     3      3      4      3
     4      4      5      4
     5      5      6      5
     6      6      7      6
     7      7      8      7
     8      8      9      8
     9      9     10      9
    10     10     11     10
    11     11     12     11
    12     12     13     12
    13     13     14     13
    14     14     15     14
    15     15     16     15
    16     16     17     16
    17     17     18     17
    18     18     19     18
    19     19     20      1
    20     20     21      1
    21     21     22      1
    22     22     23      2
    23     23     24      2
    24     24     25      3
    25     25     26      3
    26     26     27      4
    27     27     28      4
    28     28     29      5
    29     29     30      5
    30     30     31      6
    31     31     32      6
    32     32     33      7
    33     33     34      7
    34     34     35      8
    35     35     36      8
    36     36     37      9
    37     37     38      9
    38     38     39     10
    39     39     40     10
    40     40     41     11
    41     41     42     11
    42     42     43     12
    43     43     44     12
    44     44     45     13
    45     45     46     13
    46     46     47     14
    47     47     48     14
    48     48     49     15
    49     49     50     15
    50     50     51     16
    51     51     52     16
    52     52     53     17
    53     53     54     17
    54     54     55     18
    55     55     56     18
    56     56     57     19
    57     57     58     19

Angles 

     1      1      1      2      3
     2      2      2      3      4
     3      3      3      4      5
     4      4      4      5      6
     5      5      5      6      7
     6      6      6      7      8
     7      7      7      8      9
     8      8      8      9     10
     9      9      9     10     11
    10     10     10     11     12
    11     11     11     12     13
    12     12     12     13     14
    13     13     13     14     15
    14     14     14     15     16
    15     15     15     16     17
    16     16     16     17     18
    17     17     17     18     19
    18     18      2      1     20
    19     19      2      1     21
    20     20      2      1     22
    21     21      1      2     23
    22     22      1      2     24
    23     23      2      3     25
    24     24      2      3     26
    25     25      3      4     27
    26     26      3      4     28
    27     27      4      5     29
    28     28      4      5     30
    29     29      5      6     31
    30     30      5      6     32
    31     31      6      7     33
    32     32      6      7     34
    33     33      7      8     35
    34     34      7      8     36
    35     35      8      9     37
    36     36      8      9     38
    37     37      9     10     39
    38     38      9     10     40
    39     39     10     11     41
    40     40     10     11     42
    41     41     11     12     43
    42     42     11     12     44
    43     43     12     13     45
    44     44     12     13     46
    45     45     13     14     47
    46     46     13     14     48
    47     47     14     15     49
    48     48     14     15     50
    49     49     15     16     51
    50     50     15     16     52
    51     51     16     17     53
    52     52     16     17     54
    53     53     17     18     55
    54     54     17     18     56
    55     55     18     19     57
    56     56     18     19     58
    57     57     15     14     47
    58     58     16     15     50
    59     59     12     11     42
    60     60     18     17     54
    61     61     33      7     34
    62     62     27      4     28
    63     63     51     16     52
    64     64     16     15     49
    65     65     45     13     46
    66     66     20      1     21
    67     67      5      4     27
    68     68      7      6     32
    69     69      7      6     31
    70     70      6      5     30
    71     71     49     15     50
    72     72     14     13     45
    73     73      5      4     28
    74     74     41     11     42
    75     75      9      8     36
    76     76     39     10     40
    77     77     20      1     22
    78     78     11     10     40
    79     79     29      5     30
    80     80     17     16     52
    81     81     35      8     36
    82     82     43     12     44
    83     83      4      3     25
    84     84     57     19     58
    85     85      8      7     33
    86     86     14     13     46
    87     87     13     12     43
    88     88      4      3     26
    89     89      8      7     34
    90     90     19     18     55
    91     91     18     17     53
    92     92      6      5     29
    93     93     55     18     56
    94     94     25      3     26
    95     95     31      6     32
    96     96     11     10     39
    97     97     53     17     54
    98     98     47     14     48
    99     99     10      9     38
   100    100      3      2     23
   101    101      9      8     35
   102    102     10      9     37
   103    103     37      9     38
   104    104     15     14     48
   105    105     23      2     24
   106    106     13     12     44
   107    107     19     18     56
   108    108     21      1     22
   109    109      3      2     24
   110    110     17     16     51
   111    111     12     11     41

Dihedrals

     1      1      4      3      2      1 
     2      2      5      4      3      2 
     3      3      6      5      4      3 
     4      4      7      6      5      4 
     5      5      8      7      6      5 
     6      6      9      8      7      6 
     7      7     10      9      8      7 
     8      8     11     10      9      8 
     9      9     12     11     10      9 
    10     10     13     12     11     10 
    11     11     14     13     12     11 
    12     12     15     14     13     12 
    13     13     16     15     14     13 
    14     14     17     16     15     14 
    15     15     18     17     16     15 
    16     16     19     18     17     16 
    17     17     20      1      2      3 
    18     18     57     19     18     17 
    19     19     52     16     15     50 
    20     20     25      3      4      5 
    21     21     28      4      3      2 
    22     22     42     11     12     13 
    23     23     29      5      4     28 
    24     24     30      5      4     27 
    25     25     54     17     16     15 
    26     26     51     16     17     18 
    27     27     35      8      9     10 
    28     28     38      9      8      7 
    29     29     58     19     18     55 
    30     30     54     17     18     19 
    31     31     42     11     10     39 
    32     32     41     11     10     40 
    33     33     23      2      1     21 
    34     34     51     16     15     14 
    35     35     45     13     14     15 
    36     36     54     17     16     51 
    37     37     53     17     16     52 
    38     38     53     17     16     15 
    39     39     38      9     10     11 
    40     40     48     14     13     12 
    41     41     26      3      2      1 
    42     42     33      7      6     31 
    43     43     55     18     17     54 
    44     44     23      2      3      4 
    45     45     47     14     13     45 
    46     46     32      6      7      8 
    47     47     27      4      3     25 
    48     48     46     13     12     44 
    49     49     32      6      5     30 
    50     50     40     10      9     38 
    51     51     58     19     18     56 