LAMMPS data file Created by LigParGen - (Written by Leela S. Dodda)

      16 atoms
      15 bonds
      27 angles
      33 dihedrals
       9 impropers
 
      16 atom types
      15 bond types
      27 angle types
      33 dihedral types
       9 improper types
 
   -4.135000    45.865000 xlo xhi
    0.112420    50.112420 ylo yhi
   -1.027190    48.972810 zlo zhi

Masses

       1     12.011  
       2     12.011  
       3     12.011  
       4     12.011  
       5     14.007  
       6      1.008  
       7      1.008  
       8      1.008  
       9      1.008  
      10      1.008  
      11      1.008  
      12      1.008  
      13      1.008  
      14      1.008  
      15      1.008  
      16      1.008  

Pair Coeffs 

       1      0.066  3.5000000 
       2      0.066  3.5000000 
       3      0.066  3.5000000 
       4      0.066  3.5000000 
       5      0.170  3.3000000 
       6      0.030  2.5000000 
       7      0.030  2.5000000 
       8      0.030  2.5000000 
       9      0.030  2.5000000 
      10      0.030  2.5000000 
      11      0.030  2.5000000 
      12      0.030  2.5000000 
      13      0.030  2.5000000 
      14      0.030  2.5000000 
      15      0.000  0.0000000 
      16      0.000  0.0000000 

Bond Coeffs 

       1   268.0000     1.5290 
       2   268.0000     1.5290 
       3   268.0000     1.5290 
       4   382.0000     1.4480 
       5   340.0000     1.0900 
       6   340.0000     1.0900 
       7   340.0000     1.0900 
       8   340.0000     1.0900 
       9   340.0000     1.0900 
      10   340.0000     1.0900 
      11   340.0000     1.0900 
      12   340.0000     1.0900 
      13   340.0000     1.0900 
      14   434.0000     1.0100 
      15   434.0000     1.0100 

Angle Coeffs 

       1     58.350    112.700
       2     58.350    112.700
       3     56.200    109.470
       4     37.500    110.700
       5     37.500    110.700
       6     37.500    110.700
       7     37.500    110.700
       8     37.500    110.700
       9     37.500    110.700
      10     37.500    110.700
      11     37.500    110.700
      12     37.500    110.700
      13     35.000    109.500
      14     35.000    109.500
      15     43.600    106.400
      16     37.500    110.700
      17     33.000    107.800
      18     35.000    109.500
      19     33.000    107.800
      20     33.000    107.800
      21     35.000    109.500
      22     37.500    110.700
      23     37.500    110.700
      24     33.000    107.800
      25     33.000    107.800
      26     33.000    107.800
      27     37.500    110.700

Dihedral Coeffs  

       1      1.300     -0.200      0.200      0.000 
       2      2.392     -0.674      0.550      0.000 
       3      0.000      0.000      0.300      0.000 
       4     -0.190     -0.417      0.418      0.000 
       5      0.000      0.000      0.300      0.000 
       6      0.000      0.000      0.300      0.000 
       7      0.000      0.000      0.300      0.000 
       8      0.000      0.000      0.300      0.000 
       9      0.000      0.000      0.300      0.000 
      10      0.000      0.000      0.400      0.000 
      11      0.000      0.000      0.400      0.000 
      12     -1.013     -0.709      0.473      0.000 
      13      0.000      0.000      0.300      0.000 
      14      0.000      0.000      0.300      0.000 
      15      0.000      0.000      0.300      0.000 
      16      0.000      0.000      0.300      0.000 
      17      0.000      0.000      0.300      0.000 
      18     -1.013     -0.709      0.473      0.000 
      19      0.000      0.000      0.300      0.000 
      20      0.000      0.000      0.300      0.000 
      21      0.000      0.000      0.300      0.000 
      22      0.000      0.000      0.300      0.000 
      23      0.000      0.000      0.300      0.000 
      24      0.000      0.000      0.400      0.000 
      25     -0.190     -0.417      0.418      0.000 
      26      0.000      0.000      0.300      0.000 
      27      0.000      0.000      0.300      0.000 
      28      0.000      0.000      0.300      0.000 
      29      0.000      0.000      0.300      0.000 
      30      0.000      0.000      0.300      0.000 
      31      0.000      0.000      0.300      0.000 
      32      0.000      0.000      0.300      0.000 
      33      0.000      0.000      0.400      0.000 

Improper Coeffs 

       1      0.000      -1       2 
       2      0.000      -1       2 
       3      0.000      -1       2 
       4      0.000      -1       2 
       5      0.000      -1       2 
       6      0.000      -1       2 
       7      0.000      -1       2 
       8      0.000      -1       2 
       9      0.000      -1       2 

Atoms 

     1      1      1 -0.23800000    1.000  1.00000  0.00000
     2      1      2 -0.17950000   -0.520  1.00000  0.00000
     3      1      3 -0.18030000   -1.079  1.00000  1.42340
     4      1      4 0.08840000   -2.607  1.00180  1.41684
     5      1      5 -0.92750000   -3.117  1.00350  2.78259
     6      1      6 0.08190000    1.378  0.99870 -1.02719
     7      1      7 0.08190000    1.391  0.11242  0.50750
     8      1      8 0.08190000    1.391  1.88887  0.50526
     9      1      9 0.08770000   -0.879  0.11665 -0.54100
    10      1     10 0.08770000   -0.879  1.88336 -0.54100
    11      1     11 0.09850000   -0.709  1.88265  1.96035
    12      1     12 0.09850000   -0.709  0.11627  1.95897
    13      1     13 0.07720000   -2.984  0.11880  0.88922
    14      1     14 0.07720000   -2.979  1.88955  0.89475
    15      1     15 0.33220000   -2.798  0.16646  3.26882
    16      1     16 0.33220000   -4.135  0.95137  2.76254

Bonds 

     1      1      2      1
     2      2      3      2
     3      3      4      3
     4      4      5      4
     5      5      6      1
     6      6      7      1
     7      7      8      1
     8      8      9      2
     9      9     10      2
    10     10     11      3
    11     11     12      3
    12     12     13      4
    13     13     14      4
    14     14     15      5
    15     15     16      5

Angles 

     1      1      1      2      3
     2      2      2      3      4
     3      3      3      4      5
     4      4      2      1      6
     5      5      2      1      7
     6      6      2      1      8
     7      7      1      2      9
     8      8      1      2     10
     9      9      2      3     11
    10     10      2      3     12
    11     11      3      4     13
    12     12      3      4     14
    13     13      4      5     15
    14     14      4      5     16
    15     15     15      5     16
    16     16      4      3     11
    17     17     13      4     14
    18     18      5      4     14
    19     19      9      2     10
    20     20     11      3     12
    21     21      5      4     13
    22     22      3      2      9
    23     23      4      3     12
    24     24      7      1      8
    25     25      6      1      7
    26     26      6      1      8
    27     27      3      2     10

Dihedrals

     1      1      4      3      2      1 
     2      2      5      4      3      2 
     3      3      6      1      2      3 
     4      4     15      5      4      3 
     5      5     11      3      2      9 
     6      6     11      3      2      1 
     7      7     14      4      3     12 
     8      8     12      3      2     10 
     9      9      7      1      2      3 
    10     10     16      5      4     13 
    11     11     15      5      4     14 
    12     12     11      3      4      5 
    13     13     14      4      3      2 
    14     14     12      3      2      1 
    15     15      9      2      3      4 
    16     16     13      4      3     12 
    17     17     14      4      3     11 
    18     18     12      3      4      5 
    19     19     13      4      3     11 
    20     20     10      2      1      7 
    21     21      8      1      2      3 
    22     22     10      2      1      6 
    23     23      9      2      1      7 
    24     24     15      5      4     13 
    25     25     16      5      4      3 
    26     26      9      2      1      6 
    27     27     13      4      3      2 
    28     28     10      2      1      8 
    29     29      9      2      1      8 
    30     30     11      3      2     10 
    31     31     12      3      2      9 
    32     32     10      2      3      4 
    33     33     16      5      4     14 

Impropers

     1      1      1      2      6      7 
     2      2      1      2      6      8 
     3      3      2      9      3      1 
     4      4      2      1     10      3 
     5      5      3      2     11      4 
     6      6      3      4      2     12 
     7      7      4      5      3     13 
     8      8      4      3      5     14 
     9      9      5      4     15     16 

