#C4_amine

16 atoms
4 atom types

15 bonds
4 bond types

27 angles
6 angle types

33 dihedrals
6 dihedral types

9 impropers
1 improper types

-4.135  45.865  xlo xhi
0  50.11242  ylo yhi
-1.02719  48.97281  zlo zhi

Masses

1  12.011
2  14.007
3  1.008
4  1.008

Pair Coeffs

1  0.066  3.5
2  0.17  3.3
3  0.03  2.5
4  0.0  0.0

Bond Coeffs

1  268.0  1.529
2  382.0  1.448
3  340.0  1.09
4  434.0  1.01

Angle Coeffs

1  58.35  112.7
2  56.2  109.47
3  37.5  110.7
4  35.0  109.5
5  43.6  106.4
6  33.0  107.8

Dihedral Coeffs

1  1.3  -0.2  0.2  0.0
2  2.392  -0.674  0.55  0.0
3  0.0  0.0  0.3  0.0
4  -0.19  -0.417  0.418  0.0
5  0.0  0.0  0.4  0.0
6  -1.013  -0.709  0.473  0.0

Improper Coeffs

1  0.0  -1.0  2.0

Atoms # full

1  1  1  -0.238   1   1   0
2  1  1  -0.1795  -0.52   1   0
3  1  1  -0.1803  -1.079   1   1.4234
4  1  1   0.0884  -2.607   1.0018   1.41684
5  1  2  -0.9275  -3.117   1.0035   2.78259
6  1  3   0.0819   1.378   0.9987  -1.02719
7  1  3   0.0819   1.391   0.11242   0.5075
8  1  3   0.0819   1.391   1.88887   0.50526
9  1  3   0.0877  -0.879   0.11665  -0.541
10  1  3   0.0877  -0.879   1.88336  -0.541
11  1  3   0.0985  -0.709   1.88265   1.96035
12  1  3   0.0985  -0.709   0.11627   1.95897
13  1  3   0.0772  -2.984   0.1188   0.88922
14  1  3   0.0772  -2.979   1.88955   0.89475
15  1  4   0.3322  -2.798   0.16646   3.26882
16  1  4   0.3322  -4.135   0.95137   2.76254

Bonds

1  1  2  1
2  1  3  2
3  1  4  3
4  2  5  4
5  3  6  1
6  3  7  1
7  3  8  1
8  3  9  2
9  3  10  2
10  3  11  3
11  3  12  3
12  3  13  4
13  3  14  4
14  4  15  5
15  4  16  5

Angles

1  1  1  2  3
2  1  2  3  4
3  2  3  4  5
4  3  2  1  6
5  3  2  1  7
6  3  2  1  8
7  3  1  2  9
8  3  1  2  10
9  3  2  3  11
10  3  2  3  12
11  3  3  4  13
12  3  3  4  14
13  4  4  5  15
14  4  4  5  16
15  5  15  5  16
16  3  4  3  11
17  6  13  4  14
18  4  5  4  14
19  6  9  2  10
20  6  11  3  12
21  4  5  4  13
22  3  3  2  9
23  3  4  3  12
24  6  7  1  8
25  6  6  1  7
26  6  6  1  8
27  3  3  2  10

Dihedrals

1  1  4  3  2  1
2  2  5  4  3  2
3  3  6  1  2  3
4  4  15  5  4  3
5  3  11  3  2  9
6  3  11  3  2  1
7  3  14  4  3  12
8  3  12  3  2  10
9  3  7  1  2  3
10  5  16  5  4  13
11  5  15  5  4  14
12  6  11  3  4  5
13  3  14  4  3  2
14  3  12  3  2  1
15  3  9  2  3  4
16  3  13  4  3  12
17  3  14  4  3  11
18  6  12  3  4  5
19  3  13  4  3  11
20  3  10  2  1  7
21  3  8  1  2  3
22  3  10  2  1  6
23  3  9  2  1  7
24  5  15  5  4  13
25  4  16  5  4  3
26  3  9  2  1  6
27  3  13  4  3  2
28  3  10  2  1  8
29  3  9  2  1  8
30  3  11  3  2  10
31  3  12  3  2  9
32  3  10  2  3  4
33  5  16  5  4  14

Impropers

1  1  1  2  6  7
2  1  1  2  6  8
3  1  2  9  3  1
4  1  2  1  10  3
5  1  3  2  11  4
6  1  3  4  2  12
7  1  4  5  3  13
8  1  4  3  5  14
9  1  5  4  15  16
