LAMMPS data file Created by LigParGen - (Written by Leela S. Dodda)

      40 atoms
      39 bonds
      75 angles
     105 dihedrals
      25 impropers
 
      40 atom types
      39 bond types
      75 angle types
     105 dihedral types
      25 improper types
 
  -12.398200    37.601800 xlo xhi
    0.112990    50.112990 ylo yhi
   -1.026640    48.973360 zlo zhi

Masses

       1     12.011  
       2     12.011  
       3     12.011  
       4     12.011  
       5     12.011  
       6     12.011  
       7     12.011  
       8     12.011  
       9     12.011  
      10     12.011  
      11     12.011  
      12     12.011  
      13     14.007  
      14      1.008  
      15      1.008  
      16      1.008  
      17      1.008  
      18      1.008  
      19      1.008  
      20      1.008  
      21      1.008  
      22      1.008  
      23      1.008  
      24      1.008  
      25      1.008  
      26      1.008  
      27      1.008  
      28      1.008  
      29      1.008  
      30      1.008  
      31      1.008  
      32      1.008  
      33      1.008  
      34      1.008  
      35      1.008  
      36      1.008  
      37      1.008  
      38      1.008  
      39      1.008  
      40      1.008  

Pair Coeffs 

       1      0.066  3.5000000 
       2      0.066  3.5000000 
       3      0.066  3.5000000 
       4      0.066  3.5000000 
       5      0.066  3.5000000 
       6      0.066  3.5000000 
       7      0.066  3.5000000 
       8      0.066  3.5000000 
       9      0.066  3.5000000 
      10      0.066  3.5000000 
      11      0.066  3.5000000 
      12      0.066  3.5000000 
      13      0.170  3.3000000 
      14      0.030  2.5000000 
      15      0.030  2.5000000 
      16      0.030  2.5000000 
      17      0.030  2.5000000 
      18      0.030  2.5000000 
      19      0.030  2.5000000 
      20      0.030  2.5000000 
      21      0.030  2.5000000 
      22      0.030  2.5000000 
      23      0.030  2.5000000 
      24      0.030  2.5000000 
      25      0.030  2.5000000 
      26      0.030  2.5000000 
      27      0.030  2.5000000 
      28      0.030  2.5000000 
      29      0.030  2.5000000 
      30      0.030  2.5000000 
      31      0.030  2.5000000 
      32      0.030  2.5000000 
      33      0.030  2.5000000 
      34      0.030  2.5000000 
      35      0.030  2.5000000 
      36      0.030  2.5000000 
      37      0.030  2.5000000 
      38      0.030  2.5000000 
      39      0.000  0.0000000 
      40      0.000  0.0000000 

Bond Coeffs 

       1   268.0000     1.5290 
       2   268.0000     1.5290 
       3   268.0000     1.5290 
       4   268.0000     1.5290 
       5   268.0000     1.5290 
       6   268.0000     1.5290 
       7   268.0000     1.5290 
       8   268.0000     1.5290 
       9   268.0000     1.5290 
      10   268.0000     1.5290 
      11   268.0000     1.5290 
      12   382.0000     1.4480 
      13   340.0000     1.0900 
      14   340.0000     1.0900 
      15   340.0000     1.0900 
      16   340.0000     1.0900 
      17   340.0000     1.0900 
      18   340.0000     1.0900 
      19   340.0000     1.0900 
      20   340.0000     1.0900 
      21   340.0000     1.0900 
      22   340.0000     1.0900 
      23   340.0000     1.0900 
      24   340.0000     1.0900 
      25   340.0000     1.0900 
      26   340.0000     1.0900 
      27   340.0000     1.0900 
      28   340.0000     1.0900 
      29   340.0000     1.0900 
      30   340.0000     1.0900 
      31   340.0000     1.0900 
      32   340.0000     1.0900 
      33   340.0000     1.0900 
      34   340.0000     1.0900 
      35   340.0000     1.0900 
      36   340.0000     1.0900 
      37   340.0000     1.0900 
      38   434.0000     1.0100 
      39   434.0000     1.0100 

Angle Coeffs 

       1     58.350    112.700
       2     58.350    112.700
       3     58.350    112.700
       4     58.350    112.700
       5     58.350    112.700
       6     58.350    112.700
       7     58.350    112.700
       8     58.350    112.700
       9     58.350    112.700
      10     58.350    112.700
      11     56.200    109.470
      12     37.500    110.700
      13     37.500    110.700
      14     37.500    110.700
      15     37.500    110.700
      16     37.500    110.700
      17     37.500    110.700
      18     37.500    110.700
      19     37.500    110.700
      20     37.500    110.700
      21     37.500    110.700
      22     37.500    110.700
      23     37.500    110.700
      24     37.500    110.700
      25     37.500    110.700
      26     37.500    110.700
      27     37.500    110.700
      28     37.500    110.700
      29     37.500    110.700
      30     37.500    110.700
      31     37.500    110.700
      32     37.500    110.700
      33     37.500    110.700
      34     37.500    110.700
      35     37.500    110.700
      36     37.500    110.700
      37     35.000    109.500
      38     35.000    109.500
      39     33.000    107.800
      40     37.500    110.700
      41     37.500    110.700
      42     37.500    110.700
      43     37.500    110.700
      44     35.000    109.500
      45     37.500    110.700
      46     33.000    107.800
      47     33.000    107.800
      48     33.000    107.800
      49     37.500    110.700
      50     37.500    110.700
      51     37.500    110.700
      52     33.000    107.800
      53     37.500    110.700
      54     37.500    110.700
      55     33.000    107.800
      56     33.000    107.800
      57     37.500    110.700
      58     35.000    109.500
      59     37.500    110.700
      60     33.000    107.800
      61     43.600    106.400
      62     37.500    110.700
      63     33.000    107.800
      64     33.000    107.800
      65     37.500    110.700
      66     33.000    107.800
      67     33.000    107.800
      68     37.500    110.700
      69     33.000    107.800
      70     37.500    110.700
      71     37.500    110.700
      72     33.000    107.800
      73     37.500    110.700
      74     37.500    110.700
      75     37.500    110.700

Dihedral Coeffs  

       1      1.300     -0.200      0.200      0.000 
       2      1.300     -0.200      0.200      0.000 
       3      1.300     -0.200      0.200      0.000 
       4      1.300     -0.200      0.200      0.000 
       5      1.300     -0.200      0.200      0.000 
       6      1.300     -0.200      0.200      0.000 
       7      1.300     -0.200      0.200      0.000 
       8      1.300     -0.200      0.200      0.000 
       9      1.300     -0.200      0.200      0.000 
      10      2.392     -0.674      0.550      0.000 
      11      0.000      0.000      0.300      0.000 
      12     -0.190     -0.417      0.418      0.000 
      13      0.000      0.000      0.300      0.000 
      14      0.000      0.000      0.400      0.000 
      15      0.000      0.000      0.400      0.000 
      16      0.000      0.000      0.300      0.000 
      17     -1.013     -0.709      0.473      0.000 
      18      0.000      0.000      0.300      0.000 
      19      0.000      0.000      0.300      0.000 
      20      0.000      0.000      0.300      0.000 
      21      0.000      0.000      0.300      0.000 
      22      0.000      0.000      0.300      0.000 
      23      0.000      0.000      0.300      0.000 
      24      0.000      0.000      0.300      0.000 
      25      0.000      0.000      0.300      0.000 
      26      0.000      0.000      0.300      0.000 
      27      0.000      0.000      0.300      0.000 
      28      0.000      0.000      0.300      0.000 
      29      0.000      0.000      0.300      0.000 
      30      0.000      0.000      0.300      0.000 
      31      0.000      0.000      0.300      0.000 
      32      0.000      0.000      0.300      0.000 
      33      0.000      0.000      0.300      0.000 
      34      0.000      0.000      0.300      0.000 
      35      0.000      0.000      0.300      0.000 
      36      0.000      0.000      0.300      0.000 
      37      0.000      0.000      0.300      0.000 
      38      0.000      0.000      0.300      0.000 
      39      0.000      0.000      0.300      0.000 
      40      0.000      0.000      0.300      0.000 
      41      0.000      0.000      0.300      0.000 
      42      0.000      0.000      0.300      0.000 
      43      0.000      0.000      0.300      0.000 
      44      0.000      0.000      0.300      0.000 
      45      0.000      0.000      0.400      0.000 
      46      0.000      0.000      0.300      0.000 
      47      0.000      0.000      0.300      0.000 
      48      0.000      0.000      0.300      0.000 
      49      0.000      0.000      0.300      0.000 
      50      0.000      0.000      0.300      0.000 
      51      0.000      0.000      0.300      0.000 
      52      0.000      0.000      0.300      0.000 
      53      0.000      0.000      0.400      0.000 
      54      0.000      0.000      0.300      0.000 
      55      0.000      0.000      0.300      0.000 
      56      0.000      0.000      0.300      0.000 
      57      0.000      0.000      0.300      0.000 
      58      0.000      0.000      0.300      0.000 
      59      0.000      0.000      0.300      0.000 
      60      0.000      0.000      0.300      0.000 
      61      0.000      0.000      0.300      0.000 
      62      0.000      0.000      0.300      0.000 
      63      0.000      0.000      0.300      0.000 
      64      0.000      0.000      0.300      0.000 
      65      0.000      0.000      0.300      0.000 
      66      0.000      0.000      0.300      0.000 
      67      0.000      0.000      0.300      0.000 
      68     -0.190     -0.417      0.418      0.000 
      69      0.000      0.000      0.300      0.000 
      70      0.000      0.000      0.300      0.000 
      71      0.000      0.000      0.300      0.000 
      72      0.000      0.000      0.300      0.000 
      73      0.000      0.000      0.300      0.000 
      74      0.000      0.000      0.300      0.000 
      75      0.000      0.000      0.300      0.000 
      76      0.000      0.000      0.300      0.000 
      77      0.000      0.000      0.300      0.000 
      78      0.000      0.000      0.300      0.000 
      79      0.000      0.000      0.300      0.000 
      80      0.000      0.000      0.300      0.000 
      81      0.000      0.000      0.300      0.000 
      82      0.000      0.000      0.300      0.000 
      83      0.000      0.000      0.300      0.000 
      84      0.000      0.000      0.300      0.000 
      85      0.000      0.000      0.300      0.000 
      86      0.000      0.000      0.300      0.000 
      87      0.000      0.000      0.300      0.000 
      88      0.000      0.000      0.300      0.000 
      89      0.000      0.000      0.300      0.000 
      90      0.000      0.000      0.300      0.000 
      91      0.000      0.000      0.300      0.000 
      92      0.000      0.000      0.300      0.000 
      93      0.000      0.000      0.300      0.000 
      94      0.000      0.000      0.300      0.000 
      95      0.000      0.000      0.300      0.000 
      96      0.000      0.000      0.300      0.000 
      97      0.000      0.000      0.300      0.000 
      98      0.000      0.000      0.300      0.000 
      99     -1.013     -0.709      0.473      0.000 
     100      0.000      0.000      0.300      0.000 
     101      0.000      0.000      0.300      0.000 
     102      0.000      0.000      0.300      0.000 
     103      0.000      0.000      0.300      0.000 
     104      0.000      0.000      0.300      0.000 
     105      0.000      0.000      0.300      0.000 

Improper Coeffs 

       1      0.000      -1       2 
       2      0.000      -1       2 
       3      0.000      -1       2 
       4      0.000      -1       2 
       5      0.000      -1       2 
       6      0.000      -1       2 
       7      0.000      -1       2 
       8      0.000      -1       2 
       9      0.000      -1       2 
      10      0.000      -1       2 
      11      0.000      -1       2 
      12      0.000      -1       2 
      13      0.000      -1       2 
      14      0.000      -1       2 
      15      0.000      -1       2 
      16      0.000      -1       2 
      17      0.000      -1       2 
      18      0.000      -1       2 
      19      0.000      -1       2 
      20      0.000      -1       2 
      21      0.000      -1       2 
      22      0.000      -1       2 
      23      0.000      -1       2 
      24      0.000      -1       2 
      25      0.000      -1       2 

Atoms 

     1      1      1 -0.23900000    1.000  1.00000  0.00000
     2      1      2 -0.17930000   -0.520  1.00000  0.00000
     3      1      3 -0.17840000   -1.073  1.00000  1.42401
     4      1      4 -0.17920000   -2.602  1.00180  1.42401
     5      1      5 -0.17910000   -3.151  1.00360  2.85021
     6      1      6 -0.17880000   -4.679  1.00360  2.85513
     7      1      7 -0.17890000   -5.223  1.00720  4.28284
     8      1      8 -0.17910000   -6.751  1.00901  4.29103
     9      1      9 -0.17820000   -7.293  1.01442  5.72003
    10      1     10 -0.17920000   -8.821  1.01444  5.73151
    11      1     11 -0.18110000   -9.361  1.01805  7.16207
    12      1     12 0.08840000  -10.888  1.01626  7.17190
    13      1     13 -0.92690000  -11.381  1.02148  8.54375
    14      1     14 0.08070000    1.379  0.99870 -1.02664
    15      1     15 0.08070000    1.391  0.11299  0.50853
    16      1     16 0.08070000    1.391  1.88828  0.50628
    17      1     17 0.08830000   -0.880  0.11718 -0.54067
    18      1     18 0.08830000   -0.880  1.88364 -0.53975
    19      1     19 0.08960000   -0.706  1.88244  1.96158
    20      1     20 0.08960000   -0.707  0.11587  1.95982
    21      1     21 0.08920000   -2.971  0.11876  0.88818
    22      1     22 0.08920000   -2.969  1.88555  0.88773
    23      1     23 0.08950000   -2.782  1.88769  3.38410
    24      1     24 0.08950000   -2.782  0.12075  3.38639
    25      1     25 0.08940000   -5.048  0.11911  2.32194
    26      1     26 0.08940000   -5.048  1.88532  2.31752
    27      1     27 0.08980000   -4.852  1.89103  4.81582
    28      1     28 0.08980000   -4.854  0.12476  4.81946
    29      1     29 0.08940000   -7.123  0.12457  3.75938
    30      1     30 0.08940000   -7.121  1.89078  3.75346
    31      1     31 0.09080000   -6.920  1.89990  6.24973
    32      1     32 0.09080000   -6.920  0.13301  6.25640
    33      1     33 0.08900000   -9.192  0.12958  5.19967
    34      1     34 0.08900000   -9.191  1.89648  5.19529
    35      1     35 0.09850000   -8.986  1.90342  7.69121
    36      1     36 0.09850000   -8.983  0.13641  7.69548
    37      1     37 0.07750000  -11.268  0.13065  6.65143
    38      1     38 0.07750000  -11.268  1.90155  6.65069
    39      1     39 0.33220000  -11.051  0.18753  9.02849
    40      1     40 0.33220000  -12.398  0.96473  8.53701

Bonds 

     1      1      2      1
     2      2      3      2
     3      3      4      3
     4      4      5      4
     5      5      6      5
     6      6      7      6
     7      7      8      7
     8      8      9      8
     9      9     10      9
    10     10     11     10
    11     11     12     11
    12     12     13     12
    13     13     14      1
    14     14     15      1
    15     15     16      1
    16     16     17      2
    17     17     18      2
    18     18     19      3
    19     19     20      3
    20     20     21      4
    21     21     22      4
    22     22     23      5
    23     23     24      5
    24     24     25      6
    25     25     26      6
    26     26     27      7
    27     27     28      7
    28     28     29      8
    29     29     30      8
    30     30     31      9
    31     31     32      9
    32     32     33     10
    33     33     34     10
    34     34     35     11
    35     35     36     11
    36     36     37     12
    37     37     38     12
    38     38     39     13
    39     39     40     13

Angles 

     1      1      1      2      3
     2      2      2      3      4
     3      3      3      4      5
     4      4      4      5      6
     5      5      5      6      7
     6      6      6      7      8
     7      7      7      8      9
     8      8      8      9     10
     9      9      9     10     11
    10     10     10     11     12
    11     11     11     12     13
    12     12      2      1     14
    13     13      2      1     15
    14     14      2      1     16
    15     15      1      2     17
    16     16      1      2     18
    17     17      2      3     19
    18     18      2      3     20
    19     19      3      4     21
    20     20      3      4     22
    21     21      4      5     23
    22     22      4      5     24
    23     23      5      6     25
    24     24      5      6     26
    25     25      6      7     27
    26     26      6      7     28
    27     27      7      8     29
    28     28      7      8     30
    29     29      8      9     31
    30     30      8      9     32
    31     31      9     10     33
    32     32      9     10     34
    33     33     10     11     35
    34     34     10     11     36
    35     35     11     12     37
    36     36     11     12     38
    37     37     12     13     39
    38     38     12     13     40
    39     39     25      6     26
    40     40      8      7     28
    41     41      8      7     27
    42     42      6      5     24
    43     43      9      8     30
    44     44     13     12     37
    45     45      3      2     18
    46     46     29      8     30
    47     47     27      7     28
    48     48     37     12     38
    49     49      9      8     29
    50     50      3      2     17
    51     51      7      6     25
    52     52     23      5     24
    53     53      4      3     19
    54     54     12     11     36
    55     55     21      4     22
    56     56     15      1     16
    57     57      7      6     26
    58     58     13     12     38
    59     59      5      4     22
    60     60     14      1     15
    61     61     39     13     40
    62     62     10      9     31
    63     63     17      2     18
    64     64     19      3     20
    65     65     11     10     34
    66     66     33     10     34
    67     67     31      9     32
    68     68      6      5     23
    69     69     14      1     16
    70     70      5      4     21
    71     71      4      3     20
    72     72     35     11     36
    73     73     11     10     33
    74     74     10      9     32
    75     75     12     11     35

Dihedrals

     1      1      4      3      2      1 
     2      2      5      4      3      2 
     3      3      6      5      4      3 
     4      4      7      6      5      4 
     5      5      8      7      6      5 
     6      6      9      8      7      6 
     7      7     10      9      8      7 
     8      8     11     10      9      8 
     9      9     12     11     10      9 
    10     10     13     12     11     10 
    11     11     14      1      2      3 
    12     12     39     13     12     11 
    13     13     35     11     10     33 
    14     14     39     13     12     38 
    15     15     40     13     12     37 
    16     16     28      7      8      9 
    17     17     36     11     12     13 
    18     18     28      7      6     25 
    19     19     27      7      6     26 
    20     20     28      7      6     26 
    21     21     32      9     10     11 
    22     22     34     10      9     31 
    23     23     33     10      9     32 
    24     24     36     11     10     33 
    25     25     34     10     11     12 
    26     26     30      8      9     10 
    27     27     28      7      6      5 
    28     28     25      6      7      8 
    29     29     34     10      9     32 
    30     30     23      5      6      7 
    31     31     30      8      7     28 
    32     32     29      8      7     27 
    33     33     18      2      1     15 
    34     34     17      2      3      4 
    35     35     30      8      7     27 
    36     36     29      8      7     28 
    37     37     27      7      8      9 
    38     38     30      8      7      6 
    39     39     35     11     10      9 
    40     40     19      3      2      1 
    41     41     37     12     11     10 
    42     42     25      6      5     23 
    43     43     38     12     11     36 
    44     44     26      6      5      4 
    45     45     39     13     12     37 
    46     46     20      3      2      1 
    47     47     21      4      3     19 
    48     48     20      3      2     18 
    49     49     22      4      3     20 
    50     50     18      2      1     14 
    51     51     17      2      1     15 
    52     52     17      2      1     16 
    53     53     40     13     12     38 
    54     54     23      5      4     21 
    55     55     22      4      3      2 
    56     56     33     10      9     31 
    57     57     20      3      4      5 
    58     58     32      9      8     30 
    59     59     35     11     10     34 
    60     60     24      5      6      7 
    61     61     23      5      4      3 
    62     62     37     12     11     35 
    63     63     21      4      3      2 
    64     64     34     10      9      8 
    65     65     31      9     10     11 
    66     66     29      8      9     10 
    67     67     26      6      5     24 
    68     68     40     13     12     11 
    69     69     31      9      8     30 
    70     70     33     10      9      8 
    71     71     24      5      4      3 
    72     72     26      6      5     23 
    73     73     25      6      5     24 
    74     74     24      5      4     22 
    75     75     27      7      6     25 
    76     76     32      9      8      7 
    77     77     31      9      8     29 
    78     78     15      1      2      3 
    79     79     27      7      6      5 
    80     80     25      6      5      4 
    81     81     37     12     11     36 
    82     82     33     10     11     12 
    83     83     21      4      3     20 
    84     84     22      4      3     19 
    85     85     29      8      7      6 
    86     86     26      6      7      8 
    87     87     20      3      2     17 
    88     88     19      3      2     18 
    89     89     36     11     10     34 
    90     90     19      3      2     17 
    91     91     21      4      5      6 
    92     92     31      9      8      7 
    93     93     19      3      4      5 
    94     94     36     11     10      9 
    95     95     18      2      3      4 
    96     96     38     12     11     10 
    97     97     24      5      4     21 
    98     98     23      5      4     22 
    99     99     35     11     12     13 
   100    100     22      4      5      6 
   101    101     32      9      8     29 
   102    102     16      1      2      3 
   103    103     38     12     11     35 
   104    104     17      2      1     14 
   105    105     18      2      1     16 

Impropers

     1      1      1      2     14     15 
     2      2      1      2     14     16 
     3      3      2     17      3      1 
     4      4      2      1     18      3 
     5      5      3      2     19      4 
     6      6      3      4      2     20 
     7      7      4      5      3     21 
     8      8      4      3      5     22 
     9      9      5      4      6     23 
    10     10      5      4      6     24 
    11     11      6     25      5      7 
    12     12      6     26      5      7 
    13     13      7     27      6      8 
    14     14      7     28      6      8 
    15     15      8      9     29      7 
    16     16      8      9     30      7 
    17     17      9     10     31      8 
    18     18      9     10      8     32 
    19     19     10     33     11      9 
    20     20     10      9     34     11 
    21     21     11     10     35     12 
    22     22     11     12     10     36 
    23     23     12     13     11     37 
    24     24     12     11     13     38 
    25     25     13     12     39     40 

