#C12_amine

40 atoms
4 atom types

39 bonds
4 bond types

75 angles
6 angle types

105 dihedrals
6 dihedral types

25 impropers
1 improper types

-12.3982  37.6018  xlo xhi
0  50.11299  ylo yhi
-1.02664  48.97336  zlo zhi

Masses

1  12.011
2  14.007
3  1.008
4  1.008

Pair Coeffs

1  0.066  3.5
2  0.17  3.3
3  0.03  2.5
4  0.0  0.0

Bond Coeffs

1  268.0  1.529
2  382.0  1.448
3  340.0  1.09
4  434.0  1.01

Angle Coeffs

1  58.35  112.7
2  56.2  109.47
3  37.5  110.7
4  35.0  109.5
5  33.0  107.8
6  43.6  106.4

Dihedral Coeffs

1  1.3  -0.2  0.2  0.0
2  2.392  -0.674  0.55  0.0
3  0.0  0.0  0.3  0.0
4  -0.19  -0.417  0.418  0.0
5  0.0  0.0  0.4  0.0
6  -1.013  -0.709  0.473  0.0

Improper Coeffs

1  0.0  -1.0  2.0

Atoms # full

1  1  1  -0.239   1   1   0
2  1  1  -0.1793  -0.52   1   0
3  1  1  -0.1784  -1.073   1   1.42401
4  1  1  -0.1792  -2.602   1.0018   1.42401
5  1  1  -0.1791  -3.151   1.0036   2.85021
6  1  1  -0.1788  -4.679   1.0036   2.85513
7  1  1  -0.1789  -5.223   1.0072   4.28284
8  1  1  -0.1791  -6.751   1.00901   4.29103
9  1  1  -0.1782  -7.293   1.01442   5.72003
10  1  1  -0.1792  -8.821   1.01444   5.73151
11  1  1  -0.1811  -9.361   1.01805   7.16207
12  1  1   0.0884  -10.888   1.01626   7.1719
13  1  2  -0.9269  -11.381   1.02148   8.54375
14  1  3   0.0807   1.379   0.9987  -1.02664
15  1  3   0.0807   1.391   0.11299   0.50853
16  1  3   0.0807   1.391   1.88828   0.50628
17  1  3   0.0883  -0.88   0.11718  -0.54067
18  1  3   0.0883  -0.88   1.88364  -0.53975
19  1  3   0.0896  -0.706   1.88244   1.96158
20  1  3   0.0896  -0.707   0.11587   1.95982
21  1  3   0.0892  -2.971   0.11876   0.88818
22  1  3   0.0892  -2.969   1.88555   0.88773
23  1  3   0.0895  -2.782   1.88769   3.3841
24  1  3   0.0895  -2.782   0.12075   3.38639
25  1  3   0.0894  -5.048   0.11911   2.32194
26  1  3   0.0894  -5.048   1.88532   2.31752
27  1  3   0.0898  -4.852   1.89103   4.81582
28  1  3   0.0898  -4.854   0.12476   4.81946
29  1  3   0.0894  -7.123   0.12457   3.75938
30  1  3   0.0894  -7.121   1.89078   3.75346
31  1  3   0.0908  -6.92   1.8999   6.24973
32  1  3   0.0908  -6.92   0.13301   6.2564
33  1  3   0.089  -9.192   0.12958   5.19967
34  1  3   0.089  -9.191   1.89648   5.19529
35  1  3   0.0985  -8.986   1.90342   7.69121
36  1  3   0.0985  -8.983   0.13641   7.69548
37  1  3   0.0775  -11.268   0.13065   6.65143
38  1  3   0.0775  -11.268   1.90155   6.65069
39  1  4   0.3322  -11.051   0.18753   9.02849
40  1  4   0.3322  -12.398   0.96473   8.53701

Bonds

1  1  2  1
2  1  3  2
3  1  4  3
4  1  5  4
5  1  6  5
6  1  7  6
7  1  8  7
8  1  9  8
9  1  10  9
10  1  11  10
11  1  12  11
12  2  13  12
13  3  14  1
14  3  15  1
15  3  16  1
16  3  17  2
17  3  18  2
18  3  19  3
19  3  20  3
20  3  21  4
21  3  22  4
22  3  23  5
23  3  24  5
24  3  25  6
25  3  26  6
26  3  27  7
27  3  28  7
28  3  29  8
29  3  30  8
30  3  31  9
31  3  32  9
32  3  33  10
33  3  34  10
34  3  35  11
35  3  36  11
36  3  37  12
37  3  38  12
38  4  39  13
39  4  40  13

Angles

1  1  1  2  3
2  1  2  3  4
3  1  3  4  5
4  1  4  5  6
5  1  5  6  7
6  1  6  7  8
7  1  7  8  9
8  1  8  9  10
9  1  9  10  11
10  1  10  11  12
11  2  11  12  13
12  3  2  1  14
13  3  2  1  15
14  3  2  1  16
15  3  1  2  17
16  3  1  2  18
17  3  2  3  19
18  3  2  3  20
19  3  3  4  21
20  3  3  4  22
21  3  4  5  23
22  3  4  5  24
23  3  5  6  25
24  3  5  6  26
25  3  6  7  27
26  3  6  7  28
27  3  7  8  29
28  3  7  8  30
29  3  8  9  31
30  3  8  9  32
31  3  9  10  33
32  3  9  10  34
33  3  10  11  35
34  3  10  11  36
35  3  11  12  37
36  3  11  12  38
37  4  12  13  39
38  4  12  13  40
39  5  25  6  26
40  3  8  7  28
41  3  8  7  27
42  3  6  5  24
43  3  9  8  30
44  4  13  12  37
45  3  3  2  18
46  5  29  8  30
47  5  27  7  28
48  5  37  12  38
49  3  9  8  29
50  3  3  2  17
51  3  7  6  25
52  5  23  5  24
53  3  4  3  19
54  3  12  11  36
55  5  21  4  22
56  5  15  1  16
57  3  7  6  26
58  4  13  12  38
59  3  5  4  22
60  5  14  1  15
61  6  39  13  40
62  3  10  9  31
63  5  17  2  18
64  5  19  3  20
65  3  11  10  34
66  5  33  10  34
67  5  31  9  32
68  3  6  5  23
69  5  14  1  16
70  3  5  4  21
71  3  4  3  20
72  5  35  11  36
73  3  11  10  33
74  3  10  9  32
75  3  12  11  35

Dihedrals

1  1  4  3  2  1
2  1  5  4  3  2
3  1  6  5  4  3
4  1  7  6  5  4
5  1  8  7  6  5
6  1  9  8  7  6
7  1  10  9  8  7
8  1  11  10  9  8
9  1  12  11  10  9
10  2  13  12  11  10
11  3  14  1  2  3
12  4  39  13  12  11
13  3  35  11  10  33
14  5  39  13  12  38
15  5  40  13  12  37
16  3  28  7  8  9
17  6  36  11  12  13
18  3  28  7  6  25
19  3  27  7  6  26
20  3  28  7  6  26
21  3  32  9  10  11
22  3  34  10  9  31
23  3  33  10  9  32
24  3  36  11  10  33
25  3  34  10  11  12
26  3  30  8  9  10
27  3  28  7  6  5
28  3  25  6  7  8
29  3  34  10  9  32
30  3  23  5  6  7
31  3  30  8  7  28
32  3  29  8  7  27
33  3  18  2  1  15
34  3  17  2  3  4
35  3  30  8  7  27
36  3  29  8  7  28
37  3  27  7  8  9
38  3  30  8  7  6
39  3  35  11  10  9
40  3  19  3  2  1
41  3  37  12  11  10
42  3  25  6  5  23
43  3  38  12  11  36
44  3  26  6  5  4
45  5  39  13  12  37
46  3  20  3  2  1
47  3  21  4  3  19
48  3  20  3  2  18
49  3  22  4  3  20
50  3  18  2  1  14
51  3  17  2  1  15
52  3  17  2  1  16
53  5  40  13  12  38
54  3  23  5  4  21
55  3  22  4  3  2
56  3  33  10  9  31
57  3  20  3  4  5
58  3  32  9  8  30
59  3  35  11  10  34
60  3  24  5  6  7
61  3  23  5  4  3
62  3  37  12  11  35
63  3  21  4  3  2
64  3  34  10  9  8
65  3  31  9  10  11
66  3  29  8  9  10
67  3  26  6  5  24
68  4  40  13  12  11
69  3  31  9  8  30
70  3  33  10  9  8
71  3  24  5  4  3
72  3  26  6  5  23
73  3  25  6  5  24
74  3  24  5  4  22
75  3  27  7  6  25
76  3  32  9  8  7
77  3  31  9  8  29
78  3  15  1  2  3
79  3  27  7  6  5
80  3  25  6  5  4
81  3  37  12  11  36
82  3  33  10  11  12
83  3  21  4  3  20
84  3  22  4  3  19
85  3  29  8  7  6
86  3  26  6  7  8
87  3  20  3  2  17
88  3  19  3  2  18
89  3  36  11  10  34
90  3  19  3  2  17
91  3  21  4  5  6
92  3  31  9  8  7
93  3  19  3  4  5
94  3  36  11  10  9
95  3  18  2  3  4
96  3  38  12  11  10
97  3  24  5  4  21
98  3  23  5  4  22
99  6  35  11  12  13
100  3  22  4  5  6
101  3  32  9  8  29
102  3  16  1  2  3
103  3  38  12  11  35
104  3  17  2  1  14
105  3  18  2  1  16

Impropers

1  1  1  2  14  15
2  1  1  2  14  16
3  1  2  17  3  1
4  1  2  1  18  3
5  1  3  2  19  4
6  1  3  4  2  20
7  1  4  5  3  21
8  1  4  3  5  22
9  1  5  4  6  23
10  1  5  4  6  24
11  1  6  25  5  7
12  1  6  26  5  7
13  1  7  27  6  8
14  1  7  28  6  8
15  1  8  9  29  7
16  1  8  9  30  7
17  1  9  10  31  8
18  1  9  10  8  32
19  1  10  33  11  9
20  1  10  9  34  11
21  1  11  10  35  12
22  1  11  12  10  36
23  1  12  13  11  37
24  1  12  11  13  38
25  1  13  12  39  40
