LAMMPS data file Created by LigParGen - (Written by Leela S. Dodda)

      64 atoms
      63 bonds
     123 angles
     177 dihedrals
      41 impropers
 
      64 atom types
      63 bond types
     123 angle types
     177 dihedral types
      41 improper types
 
  -20.573730    29.426270 xlo xhi
    0.113790    50.113790 ylo yhi
   -1.026650    48.973350 zlo zhi

Masses

       1     12.011  
       2     12.011  
       3     12.011  
       4     12.011  
       5     12.011  
       6     12.011  
       7     12.011  
       8     12.011  
       9     12.011  
      10     12.011  
      11     12.011  
      12     12.011  
      13     12.011  
      14     12.011  
      15     12.011  
      16     12.011  
      17     12.011  
      18     12.011  
      19     12.011  
      20     12.011  
      21     14.007  
      22      1.008  
      23      1.008  
      24      1.008  
      25      1.008  
      26      1.008  
      27      1.008  
      28      1.008  
      29      1.008  
      30      1.008  
      31      1.008  
      32      1.008  
      33      1.008  
      34      1.008  
      35      1.008  
      36      1.008  
      37      1.008  
      38      1.008  
      39      1.008  
      40      1.008  
      41      1.008  
      42      1.008  
      43      1.008  
      44      1.008  
      45      1.008  
      46      1.008  
      47      1.008  
      48      1.008  
      49      1.008  
      50      1.008  
      51      1.008  
      52      1.008  
      53      1.008  
      54      1.008  
      55      1.008  
      56      1.008  
      57      1.008  
      58      1.008  
      59      1.008  
      60      1.008  
      61      1.008  
      62      1.008  
      63      1.008  
      64      1.008  

Pair Coeffs 

       1      0.066  3.5000000 
       2      0.066  3.5000000 
       3      0.066  3.5000000 
       4      0.066  3.5000000 
       5      0.066  3.5000000 
       6      0.066  3.5000000 
       7      0.066  3.5000000 
       8      0.066  3.5000000 
       9      0.066  3.5000000 
      10      0.066  3.5000000 
      11      0.066  3.5000000 
      12      0.066  3.5000000 
      13      0.066  3.5000000 
      14      0.066  3.5000000 
      15      0.066  3.5000000 
      16      0.066  3.5000000 
      17      0.066  3.5000000 
      18      0.066  3.5000000 
      19      0.066  3.5000000 
      20      0.066  3.5000000 
      21      0.170  3.3000000 
      22      0.030  2.5000000 
      23      0.030  2.5000000 
      24      0.030  2.5000000 
      25      0.030  2.5000000 
      26      0.030  2.5000000 
      27      0.030  2.5000000 
      28      0.030  2.5000000 
      29      0.030  2.5000000 
      30      0.030  2.5000000 
      31      0.030  2.5000000 
      32      0.030  2.5000000 
      33      0.030  2.5000000 
      34      0.030  2.5000000 
      35      0.030  2.5000000 
      36      0.030  2.5000000 
      37      0.030  2.5000000 
      38      0.030  2.5000000 
      39      0.030  2.5000000 
      40      0.030  2.5000000 
      41      0.030  2.5000000 
      42      0.030  2.5000000 
      43      0.030  2.5000000 
      44      0.030  2.5000000 
      45      0.030  2.5000000 
      46      0.030  2.5000000 
      47      0.030  2.5000000 
      48      0.030  2.5000000 
      49      0.030  2.5000000 
      50      0.030  2.5000000 
      51      0.030  2.5000000 
      52      0.030  2.5000000 
      53      0.030  2.5000000 
      54      0.030  2.5000000 
      55      0.030  2.5000000 
      56      0.030  2.5000000 
      57      0.030  2.5000000 
      58      0.030  2.5000000 
      59      0.030  2.5000000 
      60      0.030  2.5000000 
      61      0.030  2.5000000 
      62      0.030  2.5000000 
      63      0.000  0.0000000 
      64      0.000  0.0000000 

Bond Coeffs 

       1   268.0000     1.5290 
       2   268.0000     1.5290 
       3   268.0000     1.5290 
       4   268.0000     1.5290 
       5   268.0000     1.5290 
       6   268.0000     1.5290 
       7   268.0000     1.5290 
       8   268.0000     1.5290 
       9   268.0000     1.5290 
      10   268.0000     1.5290 
      11   268.0000     1.5290 
      12   268.0000     1.5290 
      13   268.0000     1.5290 
      14   268.0000     1.5290 
      15   268.0000     1.5290 
      16   268.0000     1.5290 
      17   268.0000     1.5290 
      18   268.0000     1.5290 
      19   268.0000     1.5290 
      20   382.0000     1.4480 
      21   340.0000     1.0900 
      22   340.0000     1.0900 
      23   340.0000     1.0900 
      24   340.0000     1.0900 
      25   340.0000     1.0900 
      26   340.0000     1.0900 
      27   340.0000     1.0900 
      28   340.0000     1.0900 
      29   340.0000     1.0900 
      30   340.0000     1.0900 
      31   340.0000     1.0900 
      32   340.0000     1.0900 
      33   340.0000     1.0900 
      34   340.0000     1.0900 
      35   340.0000     1.0900 
      36   340.0000     1.0900 
      37   340.0000     1.0900 
      38   340.0000     1.0900 
      39   340.0000     1.0900 
      40   340.0000     1.0900 
      41   340.0000     1.0900 
      42   340.0000     1.0900 
      43   340.0000     1.0900 
      44   340.0000     1.0900 
      45   340.0000     1.0900 
      46   340.0000     1.0900 
      47   340.0000     1.0900 
      48   340.0000     1.0900 
      49   340.0000     1.0900 
      50   340.0000     1.0900 
      51   340.0000     1.0900 
      52   340.0000     1.0900 
      53   340.0000     1.0900 
      54   340.0000     1.0900 
      55   340.0000     1.0900 
      56   340.0000     1.0900 
      57   340.0000     1.0900 
      58   340.0000     1.0900 
      59   340.0000     1.0900 
      60   340.0000     1.0900 
      61   340.0000     1.0900 
      62   434.0000     1.0100 
      63   434.0000     1.0100 

Angle Coeffs 

       1     58.350    112.700
       2     58.350    112.700
       3     58.350    112.700
       4     58.350    112.700
       5     58.350    112.700
       6     58.350    112.700
       7     58.350    112.700
       8     58.350    112.700
       9     58.350    112.700
      10     58.350    112.700
      11     58.350    112.700
      12     58.350    112.700
      13     58.350    112.700
      14     58.350    112.700
      15     58.350    112.700
      16     58.350    112.700
      17     58.350    112.700
      18     58.350    112.700
      19     56.200    109.470
      20     37.500    110.700
      21     37.500    110.700
      22     37.500    110.700
      23     37.500    110.700
      24     37.500    110.700
      25     37.500    110.700
      26     37.500    110.700
      27     37.500    110.700
      28     37.500    110.700
      29     37.500    110.700
      30     37.500    110.700
      31     37.500    110.700
      32     37.500    110.700
      33     37.500    110.700
      34     37.500    110.700
      35     37.500    110.700
      36     37.500    110.700
      37     37.500    110.700
      38     37.500    110.700
      39     37.500    110.700
      40     37.500    110.700
      41     37.500    110.700
      42     37.500    110.700
      43     37.500    110.700
      44     37.500    110.700
      45     37.500    110.700
      46     37.500    110.700
      47     37.500    110.700
      48     37.500    110.700
      49     37.500    110.700
      50     37.500    110.700
      51     37.500    110.700
      52     37.500    110.700
      53     37.500    110.700
      54     37.500    110.700
      55     37.500    110.700
      56     37.500    110.700
      57     37.500    110.700
      58     37.500    110.700
      59     37.500    110.700
      60     37.500    110.700
      61     35.000    109.500
      62     35.000    109.500
      63     37.500    110.700
      64     37.500    110.700
      65     37.500    110.700
      66     37.500    110.700
      67     33.000    107.800
      68     33.000    107.800
      69     33.000    107.800
      70     37.500    110.700
      71     33.000    107.800
      72     33.000    107.800
      73     33.000    107.800
      74     33.000    107.800
      75     33.000    107.800
      76     33.000    107.800
      77     33.000    107.800
      78     37.500    110.700
      79     37.500    110.700
      80     37.500    110.700
      81     37.500    110.700
      82     37.500    110.700
      83     37.500    110.700
      84     33.000    107.800
      85     33.000    107.800
      86     35.000    109.500
      87     33.000    107.800
      88     37.500    110.700
      89     33.000    107.800
      90     37.500    110.700
      91     37.500    110.700
      92     37.500    110.700
      93     43.600    106.400
      94     35.000    109.500
      95     33.000    107.800
      96     37.500    110.700
      97     37.500    110.700
      98     37.500    110.700
      99     37.500    110.700
     100     37.500    110.700
     101     37.500    110.700
     102     37.500    110.700
     103     33.000    107.800
     104     33.000    107.800
     105     33.000    107.800
     106     37.500    110.700
     107     33.000    107.800
     108     37.500    110.700
     109     37.500    110.700
     110     33.000    107.800
     111     37.500    110.700
     112     37.500    110.700
     113     33.000    107.800
     114     33.000    107.800
     115     37.500    110.700
     116     37.500    110.700
     117     37.500    110.700
     118     37.500    110.700
     119     37.500    110.700
     120     37.500    110.700
     121     37.500    110.700
     122     37.500    110.700
     123     37.500    110.700

Dihedral Coeffs  

       1      1.300     -0.200      0.200      0.000 
       2      1.300     -0.200      0.200      0.000 
       3      1.300     -0.200      0.200      0.000 
       4      1.300     -0.200      0.200      0.000 
       5      1.300     -0.200      0.200      0.000 
       6      1.300     -0.200      0.200      0.000 
       7      1.300     -0.200      0.200      0.000 
       8      1.300     -0.200      0.200      0.000 
       9      1.300     -0.200      0.200      0.000 
      10      1.300     -0.200      0.200      0.000 
      11      1.300     -0.200      0.200      0.000 
      12      1.300     -0.200      0.200      0.000 
      13      1.300     -0.200      0.200      0.000 
      14      1.300     -0.200      0.200      0.000 
      15      1.300     -0.200      0.200      0.000 
      16      1.300     -0.200      0.200      0.000 
      17      1.300     -0.200      0.200      0.000 
      18      2.392     -0.674      0.550      0.000 
      19      0.000      0.000      0.300      0.000 
      20     -0.190     -0.417      0.418      0.000 
      21      0.000      0.000      0.300      0.000 
      22      0.000      0.000      0.300      0.000 
      23      0.000      0.000      0.300      0.000 
      24      0.000      0.000      0.300      0.000 
      25      0.000      0.000      0.300      0.000 
      26      0.000      0.000      0.300      0.000 
      27      0.000      0.000      0.300      0.000 
      28      0.000      0.000      0.300      0.000 
      29      0.000      0.000      0.300      0.000 
      30      0.000      0.000      0.300      0.000 
      31      0.000      0.000      0.300      0.000 
      32      0.000      0.000      0.300      0.000 
      33      0.000      0.000      0.300      0.000 
      34     -0.190     -0.417      0.418      0.000 
      35      0.000      0.000      0.300      0.000 
      36      0.000      0.000      0.300      0.000 
      37      0.000      0.000      0.300      0.000 
      38      0.000      0.000      0.300      0.000 
      39      0.000      0.000      0.300      0.000 
      40      0.000      0.000      0.300      0.000 
      41      0.000      0.000      0.300      0.000 
      42      0.000      0.000      0.300      0.000 
      43      0.000      0.000      0.300      0.000 
      44      0.000      0.000      0.300      0.000 
      45     -1.013     -0.709      0.473      0.000 
      46      0.000      0.000      0.300      0.000 
      47      0.000      0.000      0.300      0.000 
      48      0.000      0.000      0.300      0.000 
      49      0.000      0.000      0.300      0.000 
      50      0.000      0.000      0.300      0.000 
      51      0.000      0.000      0.300      0.000 
      52      0.000      0.000      0.300      0.000 
      53      0.000      0.000      0.300      0.000 
      54      0.000      0.000      0.300      0.000 
      55      0.000      0.000      0.300      0.000 
      56      0.000      0.000      0.300      0.000 
      57      0.000      0.000      0.300      0.000 
      58      0.000      0.000      0.300      0.000 
      59      0.000      0.000      0.300      0.000 
      60      0.000      0.000      0.300      0.000 
      61      0.000      0.000      0.300      0.000 
      62      0.000      0.000      0.300      0.000 
      63      0.000      0.000      0.400      0.000 
      64      0.000      0.000      0.400      0.000 
      65      0.000      0.000      0.300      0.000 
      66      0.000      0.000      0.300      0.000 
      67      0.000      0.000      0.300      0.000 
      68      0.000      0.000      0.300      0.000 
      69      0.000      0.000      0.300      0.000 
      70      0.000      0.000      0.300      0.000 
      71      0.000      0.000      0.300      0.000 
      72      0.000      0.000      0.400      0.000 
      73      0.000      0.000      0.300      0.000 
      74      0.000      0.000      0.300      0.000 
      75      0.000      0.000      0.300      0.000 
      76      0.000      0.000      0.300      0.000 
      77      0.000      0.000      0.300      0.000 
      78      0.000      0.000      0.300      0.000 
      79      0.000      0.000      0.300      0.000 
      80      0.000      0.000      0.300      0.000 
      81      0.000      0.000      0.300      0.000 
      82      0.000      0.000      0.300      0.000 
      83      0.000      0.000      0.300      0.000 
      84      0.000      0.000      0.300      0.000 
      85      0.000      0.000      0.300      0.000 
      86      0.000      0.000      0.300      0.000 
      87      0.000      0.000      0.300      0.000 
      88      0.000      0.000      0.300      0.000 
      89      0.000      0.000      0.300      0.000 
      90      0.000      0.000      0.300      0.000 
      91      0.000      0.000      0.300      0.000 
      92      0.000      0.000      0.300      0.000 
      93      0.000      0.000      0.300      0.000 
      94      0.000      0.000      0.300      0.000 
      95      0.000      0.000      0.300      0.000 
      96      0.000      0.000      0.300      0.000 
      97      0.000      0.000      0.300      0.000 
      98      0.000      0.000      0.300      0.000 
      99     -1.013     -0.709      0.473      0.000 
     100      0.000      0.000      0.300      0.000 
     101      0.000      0.000      0.300      0.000 
     102      0.000      0.000      0.300      0.000 
     103      0.000      0.000      0.300      0.000 
     104      0.000      0.000      0.300      0.000 
     105      0.000      0.000      0.300      0.000 
     106      0.000      0.000      0.300      0.000 
     107      0.000      0.000      0.300      0.000 
     108      0.000      0.000      0.300      0.000 
     109      0.000      0.000      0.300      0.000 
     110      0.000      0.000      0.300      0.000 
     111      0.000      0.000      0.300      0.000 
     112      0.000      0.000      0.300      0.000 
     113      0.000      0.000      0.300      0.000 
     114      0.000      0.000      0.300      0.000 
     115      0.000      0.000      0.300      0.000 
     116      0.000      0.000      0.300      0.000 
     117      0.000      0.000      0.300      0.000 
     118      0.000      0.000      0.300      0.000 
     119      0.000      0.000      0.300      0.000 
     120      0.000      0.000      0.300      0.000 
     121      0.000      0.000      0.300      0.000 
     122      0.000      0.000      0.300      0.000 
     123      0.000      0.000      0.300      0.000 
     124      0.000      0.000      0.300      0.000 
     125      0.000      0.000      0.300      0.000 
     126      0.000      0.000      0.300      0.000 
     127      0.000      0.000      0.400      0.000 
     128      0.000      0.000      0.300      0.000 
     129      0.000      0.000      0.300      0.000 
     130      0.000      0.000      0.300      0.000 
     131      0.000      0.000      0.300      0.000 
     132      0.000      0.000      0.300      0.000 
     133      0.000      0.000      0.300      0.000 
     134      0.000      0.000      0.300      0.000 
     135      0.000      0.000      0.300      0.000 
     136      0.000      0.000      0.300      0.000 
     137      0.000      0.000      0.300      0.000 
     138      0.000      0.000      0.300      0.000 
     139      0.000      0.000      0.300      0.000 
     140      0.000      0.000      0.300      0.000 
     141      0.000      0.000      0.300      0.000 
     142      0.000      0.000      0.300      0.000 
     143      0.000      0.000      0.300      0.000 
     144      0.000      0.000      0.300      0.000 
     145      0.000      0.000      0.300      0.000 
     146      0.000      0.000      0.300      0.000 
     147      0.000      0.000      0.300      0.000 
     148      0.000      0.000      0.300      0.000 
     149      0.000      0.000      0.300      0.000 
     150      0.000      0.000      0.300      0.000 
     151      0.000      0.000      0.300      0.000 
     152      0.000      0.000      0.300      0.000 
     153      0.000      0.000      0.300      0.000 
     154      0.000      0.000      0.300      0.000 
     155      0.000      0.000      0.300      0.000 
     156      0.000      0.000      0.300      0.000 
     157      0.000      0.000      0.300      0.000 
     158      0.000      0.000      0.300      0.000 
     159      0.000      0.000      0.300      0.000 
     160      0.000      0.000      0.300      0.000 
     161      0.000      0.000      0.300      0.000 
     162      0.000      0.000      0.300      0.000 
     163      0.000      0.000      0.300      0.000 
     164      0.000      0.000      0.300      0.000 
     165      0.000      0.000      0.300      0.000 
     166      0.000      0.000      0.300      0.000 
     167      0.000      0.000      0.300      0.000 
     168      0.000      0.000      0.300      0.000 
     169      0.000      0.000      0.300      0.000 
     170      0.000      0.000      0.300      0.000 
     171      0.000      0.000      0.300      0.000 
     172      0.000      0.000      0.300      0.000 
     173      0.000      0.000      0.300      0.000 
     174      0.000      0.000      0.300      0.000 
     175      0.000      0.000      0.300      0.000 
     176      0.000      0.000      0.300      0.000 
     177      0.000      0.000      0.300      0.000 

Improper Coeffs 

       1      0.000      -1       2 
       2      0.000      -1       2 
       3      0.000      -1       2 
       4      0.000      -1       2 
       5      0.000      -1       2 
       6      0.000      -1       2 
       7      0.000      -1       2 
       8      0.000      -1       2 
       9      0.000      -1       2 
      10      0.000      -1       2 
      11      0.000      -1       2 
      12      0.000      -1       2 
      13      0.000      -1       2 
      14      0.000      -1       2 
      15      0.000      -1       2 
      16      0.000      -1       2 
      17      0.000      -1       2 
      18      0.000      -1       2 
      19      0.000      -1       2 
      20      0.000      -1       2 
      21      0.000      -1       2 
      22      0.000      -1       2 
      23      0.000      -1       2 
      24      0.000      -1       2 
      25      0.000      -1       2 
      26      0.000      -1       2 
      27      0.000      -1       2 
      28      0.000      -1       2 
      29      0.000      -1       2 
      30      0.000      -1       2 
      31      0.000      -1       2 
      32      0.000      -1       2 
      33      0.000      -1       2 
      34      0.000      -1       2 
      35      0.000      -1       2 
      36      0.000      -1       2 
      37      0.000      -1       2 
      38      0.000      -1       2 
      39      0.000      -1       2 
      40      0.000      -1       2 
      41      0.000      -1       2 

Atoms 

     1      1      1 -0.23890000    1.000  1.00000  0.00000
     2      1      2 -0.17940000   -0.519  1.00000  0.00000
     3      1      3 -0.17890000   -1.069  1.00000  1.42354
     4      1      4 -0.17950000   -2.594  0.99820  1.42354
     5      1      5 -0.17970000   -3.135  1.00002  2.85014
     6      1      6 -0.17960000   -4.659  1.00002  2.85340
     7      1      7 -0.17980000   -5.193  1.00365  4.28108
     8      1      8 -0.18000000   -6.717  1.00185  4.28434
     9      1      9 -0.17980000   -7.249  1.00728  5.71179
    10      1     10 -0.17990000   -8.772  1.00367  5.71343
    11      1     11 -0.17990000   -9.306  1.01089  7.14012
    12      1     12 -0.17980000  -10.829  1.00549  7.14177
    13      1     13 -0.17980000  -11.362  1.01451  8.56832
    14      1     14 -0.17980000  -12.886  1.00730  8.56999
    15      1     15 -0.17990000  -13.421  1.01811  9.99674
    16      1     16 -0.17940000  -14.945  1.00913 10.00169
    17      1     17 -0.17850000  -15.479  1.01817 11.42981
    18      1     18 -0.17940000  -17.005  1.01102 11.43965
    19      1     19 -0.18160000  -17.542  1.02186 12.86986
    20      1     20 0.08990000  -19.068  1.01292 12.88134
    21      1     21 -0.92980000  -19.557  1.02520 14.25305
    22      1     22 0.08070000    1.379  0.99870 -1.02665
    23      1     23 0.08070000    1.391  0.11382  0.50941
    24      1     24 0.08070000    1.390  1.88906  0.50672
    25      1     25 0.08840000   -0.880  0.11612 -0.53848
    26      1     26 0.08840000   -0.881  1.88302 -0.53937
    27      1     27 0.08950000   -0.702  1.88370  1.96060
    28      1     28 0.08950000   -0.700  0.11761  1.96144
    29      1     29 0.08950000   -2.963  0.11379  0.88992
    30      1     30 0.08950000   -2.965  1.88059  0.88787
    31      1     31 0.08960000   -2.765  1.88417  3.38363
    32      1     32 0.08960000   -2.765  0.11757  3.38683
    33      1     33 0.08980000   -5.030  0.11512  2.32240
    34      1     34 0.08980000   -5.031  1.88236  2.31784
    35      1     35 0.08990000   -4.824  1.88936  4.81203
    36      1     36 0.08990000   -4.822  0.12202  4.81727
    37      1     37 0.08990000   -7.087  0.11602  3.75369
    38      1     38 0.08990000   -7.089  1.88294  3.74720
    39      1     39 0.09010000   -6.880  1.89435  6.24084
    40      1     40 0.09010000   -6.876  0.12682  6.24920
    41      1     41 0.08990000   -9.140  0.11656  5.18393
    42      1     42 0.08990000   -9.145  1.88336  5.17442
    43      1     43 0.09000000   -8.937  1.89869  7.66842
    44      1     44 0.09000000   -8.931  0.13241  7.67980
    45      1     45 0.08990000  -11.196  0.11691  6.61373
    46      1     46 0.08990000  -11.202  1.88328  6.60018
    47      1     47 0.09000000  -10.995  1.90371  9.09514
    48      1     48 0.09000000  -10.986  0.13745  9.10946
    49      1     49 0.08980000  -13.251  0.11712  8.04329
    50      1     50 0.08980000  -13.260  1.88403  8.02671
    51      1     51 0.09020000  -13.053  1.90892 10.52103
    52      1     52 0.09020000  -13.042  0.14177 10.53861
    53      1     53 0.08970000  -15.310  0.11948  9.47396
    54      1     54 0.08970000  -15.320  1.88598  9.45985
    55      1     55 0.09100000  -15.110  1.90734 11.95504
    56      1     56 0.09100000  -15.101  0.14070 11.96847
    57      1     57 0.08920000  -17.371  0.12067 10.91341
    58      1     58 0.08920000  -17.381  1.88749 10.89708
    59      1     59 0.09850000  -17.170  1.91265 13.39215
    60      1     60 0.09850000  -17.157  0.14595 13.40791
    61      1     61 0.07750000  -19.444  0.12007 12.36900
    62      1     62 0.07750000  -19.453  1.89236 12.35338
    63      1     63 0.33310000  -19.217  0.20194 14.74669
    64      1     64 0.33310000  -20.574  0.95805 14.25014

Bonds 

     1      1      2      1
     2      2      3      2
     3      3      4      3
     4      4      5      4
     5      5      6      5
     6      6      7      6
     7      7      8      7
     8      8      9      8
     9      9     10      9
    10     10     11     10
    11     11     12     11
    12     12     13     12
    13     13     14     13
    14     14     15     14
    15     15     16     15
    16     16     17     16
    17     17     18     17
    18     18     19     18
    19     19     20     19
    20     20     21     20
    21     21     22      1
    22     22     23      1
    23     23     24      1
    24     24     25      2
    25     25     26      2
    26     26     27      3
    27     27     28      3
    28     28     29      4
    29     29     30      4
    30     30     31      5
    31     31     32      5
    32     32     33      6
    33     33     34      6
    34     34     35      7
    35     35     36      7
    36     36     37      8
    37     37     38      8
    38     38     39      9
    39     39     40      9
    40     40     41     10
    41     41     42     10
    42     42     43     11
    43     43     44     11
    44     44     45     12
    45     45     46     12
    46     46     47     13
    47     47     48     13
    48     48     49     14
    49     49     50     14
    50     50     51     15
    51     51     52     15
    52     52     53     16
    53     53     54     16
    54     54     55     17
    55     55     56     17
    56     56     57     18
    57     57     58     18
    58     58     59     19
    59     59     60     19
    60     60     61     20
    61     61     62     20
    62     62     63     21
    63     63     64     21

Angles 

     1      1      1      2      3
     2      2      2      3      4
     3      3      3      4      5
     4      4      4      5      6
     5      5      5      6      7
     6      6      6      7      8
     7      7      7      8      9
     8      8      8      9     10
     9      9      9     10     11
    10     10     10     11     12
    11     11     11     12     13
    12     12     12     13     14
    13     13     13     14     15
    14     14     14     15     16
    15     15     15     16     17
    16     16     16     17     18
    17     17     17     18     19
    18     18     18     19     20
    19     19     19     20     21
    20     20      2      1     22
    21     21      2      1     23
    22     22      2      1     24
    23     23      1      2     25
    24     24      1      2     26
    25     25      2      3     27
    26     26      2      3     28
    27     27      3      4     29
    28     28      3      4     30
    29     29      4      5     31
    30     30      4      5     32
    31     31      5      6     33
    32     32      5      6     34
    33     33      6      7     35
    34     34      6      7     36
    35     35      7      8     37
    36     36      7      8     38
    37     37      8      9     39
    38     38      8      9     40
    39     39      9     10     41
    40     40      9     10     42
    41     41     10     11     43
    42     42     10     11     44
    43     43     11     12     45
    44     44     11     12     46
    45     45     12     13     47
    46     46     12     13     48
    47     47     13     14     49
    48     48     13     14     50
    49     49     14     15     51
    50     50     14     15     52
    51     51     15     16     53
    52     52     15     16     54
    53     53     16     17     55
    54     54     16     17     56
    55     55     17     18     57
    56     56     17     18     58
    57     57     18     19     59
    58     58     18     19     60
    59     59     19     20     61
    60     60     19     20     62
    61     61     20     21     63
    62     62     20     21     64
    63     63     18     17     56
    64     64     18     17     55
    65     65      3      2     26
    66     66     10      9     39
    67     67     33      6     34
    68     68     45     12     46
    69     69     59     19     60
    70     70     15     14     50
    71     71     47     13     48
    72     72     27      3     28
    73     73     61     20     62
    74     74     57     18     58
    75     75     22      1     24
    76     76     29      4     30
    77     77     39      9     40
    78     78     12     11     44
    79     79     19     18     57
    80     80      6      5     32
    81     81      8      7     36
    82     82     14     13     48
    83     83      3      2     25
    84     84     37      8     38
    85     85     53     16     54
    86     86     21     20     61
    87     87     23      1     24
    88     88      9      8     37
    89     89     31      5     32
    90     90     13     12     45
    91     91     17     16     53
    92     92      4      3     28
    93     93     63     21     64
    94     94     21     20     62
    95     95     25      2     26
    96     96     14     13     47
    97     97      8      7     35
    98     98      4      3     27
    99     99     13     12     46
   100    100      7      6     34
   101    101     11     10     41
   102    102      6      5     31