#C20_amine

64 atoms
4 atom types

63 bonds
4 bond types

123 angles
6 angle types

177 dihedrals
6 dihedral types

41 impropers
1 improper types

-20.57373  29.42627  xlo xhi
0  50.11379  ylo yhi
-1.02665  48.97335  zlo zhi

Masses

1  12.011
2  14.007
3  1.008
4  1.008

Pair Coeffs

1  0.066  3.5
2  0.17  3.3
3  0.03  2.5
4  0.0  0.0

Bond Coeffs

1  268.0  1.529
2  382.0  1.448
3  340.0  1.09
4  434.0  1.01

Angle Coeffs

1  58.35  112.7
2  56.2  109.47
3  37.5  110.7
4  35.0  109.5
5  33.0  107.8
6  43.6  106.4

Dihedral Coeffs

1  1.3  -0.2  0.2  0.0
2  2.392  -0.674  0.55  0.0
3  0.0  0.0  0.3  0.0
4  -0.19  -0.417  0.418  0.0
5  -1.013  -0.709  0.473  0.0
6  0.0  0.0  0.4  0.0

Improper Coeffs

1  0.0  -1.0  2.0

Atoms # full

1  1  1  -0.2389   1   1   0
2  1  1  -0.1794  -0.519   1   0
3  1  1  -0.1789  -1.069   1   1.42354
4  1  1  -0.1795  -2.594   0.9982   1.42354
5  1  1  -0.1797  -3.135   1.00002   2.85014
6  1  1  -0.1796  -4.659   1.00002   2.8534
7  1  1  -0.1798  -5.193   1.00365   4.28108
8  1  1  -0.18  -6.717   1.00185   4.28434
9  1  1  -0.1798  -7.249   1.00728   5.71179
10  1  1  -0.1799  -8.772   1.00367   5.71343
11  1  1  -0.1799  -9.306   1.01089   7.14012
12  1  1  -0.1798  -10.829   1.00549   7.14177
13  1  1  -0.1798  -11.362   1.01451   8.56832
14  1  1  -0.1798  -12.886   1.0073   8.56999
15  1  1  -0.1799  -13.421   1.01811   9.99674
16  1  1  -0.1794  -14.945   1.00913   10.00169
17  1  1  -0.1785  -15.479   1.01817   11.42981
18  1  1  -0.1794  -17.005   1.01102   11.43965
19  1  1  -0.1816  -17.542   1.02186   12.86986
20  1  1   0.0899  -19.068   1.01292   12.88134
21  1  2  -0.9298  -19.557   1.0252   14.25305
22  1  3   0.0807   1.379   0.9987  -1.02665
23  1  3   0.0807   1.391   0.11382   0.50941
24  1  3   0.0807   1.39   1.88906   0.50672
25  1  3   0.0884  -0.88   0.11612  -0.53848
26  1  3   0.0884  -0.881   1.88302  -0.53937
27  1  3   0.0895  -0.702   1.8837   1.9606
28  1  3   0.0895  -0.7   0.11761   1.96144
29  1  3   0.0895  -2.963   0.11379   0.88992
30  1  3   0.0895  -2.965   1.88059   0.88787
31  1  3   0.0896  -2.765   1.88417   3.38363
32  1  3   0.0896  -2.765   0.11757   3.38683
33  1  3   0.0898  -5.03   0.11512   2.3224
34  1  3   0.0898  -5.031   1.88236   2.31784
35  1  3   0.0899  -4.824   1.88936   4.81203
36  1  3   0.0899  -4.822   0.12202   4.81727
37  1  3   0.0899  -7.087   0.11602   3.75369
38  1  3   0.0899  -7.089   1.88294   3.7472
39  1  3   0.0901  -6.88   1.89435   6.24084
40  1  3   0.0901  -6.876   0.12682   6.2492
41  1  3   0.0899  -9.14   0.11656   5.18393
42  1  3   0.0899  -9.145   1.88336   5.17442
43  1  3   0.09  -8.937   1.89869   7.66842
44  1  3   0.09  -8.931   0.13241   7.6798
45  1  3   0.0899  -11.196   0.11691   6.61373
46  1  3   0.0899  -11.202   1.88328   6.60018
47  1  3   0.09  -10.995   1.90371   9.09514
48  1  3   0.09  -10.986   0.13745   9.10946
49  1  3   0.0898  -13.251   0.11712   8.04329
50  1  3   0.0898  -13.26   1.88403   8.02671
51  1  3   0.0902  -13.053   1.90892   10.52103
52  1  3   0.0902  -13.042   0.14177   10.53861
53  1  3   0.0897  -15.31   0.11948   9.47396
54  1  3   0.0897  -15.32   1.88598   9.45985
55  1  3   0.091  -15.11   1.90734   11.95504
56  1  3   0.091  -15.101   0.1407   11.96847
57  1  3   0.0892  -17.371   0.12067   10.91341
58  1  3   0.0892  -17.381   1.88749   10.89708
59  1  3   0.0985  -17.17   1.91265   13.39215
60  1  3   0.0985  -17.157   0.14595   13.40791
61  1  3   0.0775  -19.444   0.12007   12.369
62  1  3   0.0775  -19.453   1.89236   12.35338
63  1  4   0.3331  -19.217   0.20194   14.74669
64  1  4   0.3331  -20.574   0.95805   14.25014

Bonds

1  1  2  1
2  1  3  2
3  1  4  3
4  1  5  4
5  1  6  5
6  1  7  6
7  1  8  7
8  1  9  8
9  1  10  9
10  1  11  10
11  1  12  11
12  1  13  12
13  1  14  13
14  1  15  14
15  1  16  15
16  1  17  16
17  1  18  17
18  1  19  18
19  1  20  19
20  2  21  20
21  3  22  1
22  3  23  1
23  3  24  1
24  3  25  2
25  3  26  2
26  3  27  3
27  3  28  3
28  3  29  4
29  3  30  4
30  3  31  5
31  3  32  5
32  3  33  6
33  3  34  6
34  3  35  7
35  3  36  7
36  3  37  8
37  3  38  8
38  3  39  9
39  3  40  9
40  3  41  10
41  3  42  10
42  3  43  11
43  3  44  11
44  3  45  12
45  3  46  12
46  3  47  13
47  3  48  13
48  3  49  14
49  3  50  14
50  3  51  15
51  3  52  15
52  3  53  16
53  3  54  16
54  3  55  17
55  3  56  17
56  3  57  18
57  3  58  18
58  3  59  19
59  3  60  19
60  3  61  20
61  3  62  20
62  4  63  21
63  4  64  21

Angles

1  1  1  2  3
2  1  2  3  4
3  1  3  4  5
4  1  4  5  6
5  1  5  6  7
6  1  6  7  8
7  1  7  8  9
8  1  8  9  10
9  1  9  10  11
10  1  10  11  12
11  1  11  12  13
12  1  12  13  14
13  1  13  14  15
14  1  14  15  16
15  1  15  16  17
16  1  16  17  18
17  1  17  18  19
18  1  18  19  20
19  2  19  20  21
20  3  2  1  22
21  3  2  1  23
22  3  2  1  24
23  3  1  2  25
24  3  1  2  26
25  3  2  3  27
26  3  2  3  28
27  3  3  4  29
28  3  3  4  30
29  3  4  5  31
30  3  4  5  32
31  3  5  6  33
32  3  5  6  34
33  3  6  7  35
34  3  6  7  36
35  3  7  8  37
36  3  7  8  38
37  3  8  9  39
38  3  8  9  40
39  3  9  10  41
40  3  9  10  42
41  3  10  11  43
42  3  10  11  44
43  3  11  12  45
44  3  11  12  46
45  3  12  13  47
46  3  12  13  48
47  3  13  14  49
48  3  13  14  50
49  3  14  15  51
50  3  14  15  52
51  3  15  16  53
52  3  15  16  54
53  3  16  17  55
54  3  16  17  56
55  3  17  18  57
56  3  17  18  58
57  3  18  19  59
58  3  18  19  60
59  3  19  20  61
60  3  19  20  62
61  4  20  21  63
62  4  20  21  64
63  3  18  17  56
64  3  18  17  55
65  3  3  2  26
66  3  10  9  39
67  5  33  6  34
68  5  45  12  46
69  5  59  19  60
70  3  15  14  50
71  5  47  13  48
72  5  27  3  28
73  5  61  20  62
74  5  57  18  58
75  5  22  1  24
76  5  29  4  30
77  5  39  9  40
78  3  12  11  44
79  3  19  18  57
80  3  6  5  32
81  3  8  7  36
82  3  14  13  48
83  3  3  2  25
84  5  37  8  38
85  5  53  16  54
86  4  21  20  61
87  5  23  1  24
88  3  9  8  37
89  5  31  5  32
90  3  13  12  45
91  3  17  16  53
92  3  4  3  28
93  6  63  21  64
94  4  21  20  62
95  5  25  2  26
96  3  14  13  47
97  3  8  7  35
98  3  4  3  27
99  3  13  12  46
100  3  7  6  34
101  3  11  10  41
102  3  6  5  31
103  5  43  11  44
104  5  55  17  56
105  5  51  15  52
106  3  20  19  59
107  5  35  7  36
108  3  5  4  29
109  3  15  14  49
110  5  41  10  42
111  3  10  9  40
112  3  5  4  30
113  5  49  14  50
114  5  22  1  23
115  3  16  15  51
116  3  20  19  60
117  3  11  10  42
118  3  12  11  43
119  3  9  8  38
120  3  7  6  33
121  3  17  16  54
122  3  19  18  58
123  3  16  15  52

Dihedrals

1  1  4  3  2  1
2  1  5  4  3  2
3  1  6  5  4  3
4  1  7  6  5  4
5  1  8  7  6  5
6  1  9  8  7  6
7  1  10  9  8  7
8  1  11  10  9  8
9  1  12  11  10  9
10  1  13  12  11  10
11  1  14  13  12  11
12  1  15  14  13  12
13  1  16  15  14  13
14  1  17  16  15  14
15  1  18  17  16  15
16  1  19  18  17  16
17  1  20  19  18  17
18  2  21  20  19  18
19  3  22  1  2  3
20  4  63  21  20  19
21  3  27  3  4  5
22  3  45  12  11  10
23  3  48  13  12  45
24  3  58  18  17  56
25  3  30  4  3  2
26  3  35  7  8  9
27  3  41  10  11  12
28  3  61  20  19  60
29  3  62  20  19  59
30  3  38  8  7  6
31  3  44  11  10  9
32  3  56  17  16  15
33  3  32  5  4  3
34  4  64  21  20  19
35  3  30  4  3  28
36  3  26  2  1  23
37  3  25  2  1  24
38  3  60  19  18  57
39  3  59  19  18  58
40  3  23  1  2  3
41  3  39  9  8  38
42  3  31  5  6  7
43  3  29  4  3  28
44  3  34  6  5  4
45  5  60  19  20  21
46  3  41  10  9  8
47  3  53  16  17  18
48  3  33  6  5  32
49  3  35  7  6  5
50  3  61  20  19  59
51  3  50  14  13  47
52  3  49  14  13  48
53  3  44  11  10  42
54  3  59  19  18  57
55  3  54  16  17  18
56  3  28  3  4  5
57  3  26  2  1  24
58  3  38  8  9  10
59  3  57  18  19  20
60  3  26  2  3  4
61  3  43  11  10  41
62  3  33  6  7  8
63  6  63  21  20  62
64  6  64  21  20  61
65  3  47  13  12  46
66  3  51  15  14  49
67  3  49  14  15  16
68  3  52  15  14  13
69  3  28  3  2  25
70  3  27  3  2  26
71  3  37  8  7  6
72  6  64  21  20  62
73  3  34  6  5  31
74  3  31  5  4  29
75  3  46  12  11  10
76  3  35  7  6  34
77  3  36  7  6  33
78  3  48  13  12  46
79  3  33  6  5  31
80  3  51  15  16  17
81  3  52  15  16  17
82  3  47  13  14  15
83  3  50  14  13  12
84  3  57  18  17  55
85  3  29  4  3  2
86  3  55  17  16  53
87  3  51  15  14  50
88  3  43  11  10  9
89  3  45  12  11  43
90  3  39  9  8  7
91  3  53  16  15  51
92  3  45  12  11  44
93  3  46  12  11  43
94  3  47  13  12  45
95  3  56  17  16  53
96  3  55  17  16  15
97  3  32  5  6  7
98  3  50  14  13  48
99  5  59  19  20  21
100  3  24  1  2  3
101  3  49  14  13  47
102  3  43  11  12  13
103  3  37  8  7  35
104  3  49  14  13  12
105  3  56  17  18  19
106  3  51  15  14  13
107  3  42  10  9  40
108  3  60  19  18  17
109  3  41  10  9  39
110  3  46  12  13  14
111  3  54  16  15  51
112  3  53  16  15  52
113  3  27  3  2  1
114  3  29  4  5  6
115  3  62  20  19  60
116  3  31  5  4  3
117  3  43  11  10  42
118  3  52  15  14  49
119  3  40  9  10  11
120  3  33  6  5  4
121  3  44  11  10  41
122  3  32  5  4  29
123  3  31  5  4  30
124  3  40  9  8  38
125  3  32  5  4  30
126  3  57  18  17  16
127  6  63  21  20  61
128  3  26  2  1  22
129  3  48  13  14  15
130  3  40  9  8  37
131  3  54  16  15  14
132  3  60  19  18  58
133  3  57  18  17  56
134  3  58  18  17  55
135  3  28  3  2  26
136  3  25  2  1  23
137  3  36  7  8  9
138  3  55  17  16  54
139  3  36  7  6  5
140  3  30  4  3  27
141  3  39  9  10  11
142  3  42  10  9  8
143  3  36  7  6  34
144  3  53  16  15  14
145  3  25  2  1  22
146  3  45  12  13  14
147  3  46  12  11  44
148  3  47  13  12  11
149  3  54  16  15  52
150  3  48  13  12  11
151  3  34  6  5  32
152  3  37  8  7  36
153  3  29  4  3  27
154  3  52  15  14  50
155  3  39  9  8  37
156  3  42  10  9  39
157  3  41  10  9  40
158  3  56  17  16  54
159  3  42  10  11  12
160  3  55  17  18  19
161  3  30  4  5  6
162  3  58  18  17  16
163  3  25  2  3  4
164  3  34  6  7  8
165  3  28  3  2  1
166  3  50  14  15  16
167  3  62  20  19  18
168  3  38  8  7  36
169  3  58  18  19  20
170  3  61  20  19  18
171  3  38  8  7  35
172  3  27  3  2  25
173  3  40  9  8  7
174  3  37  8  9  10
175  3  44  11  12  13
176  3  35  7  6  33
177  3  59  19  18  17

Impropers

1  1  1  2  22  23
2  1  1  2  22  24
3  1  2  25  3  1
4  1  2  1  26  3
5  1  3  2  27  4
6  1  3  4  2  28
7  1  4  5  3  29
8  1  4  3  5  30
9  1  5  4  6  31
10  1  5  4  6  32
11  1  6  33  5  7
12  1  6  34  5  7
13  1  7  35  6  8
14  1  7  36  6  8
15  1  8  9  37  7
16  1  8  9  38  7
17  1  9  10  39  8
18  1  9  10  8  40
19  1  10  41  11  9
20  1  10  9  42  11
21  1  11  10  43  12
22  1  11  12  10  44
23  1  12  13  11  45
24  1  12  11  13  46
25  1  13  12  14  47
26  1  13  12  14  48
27  1  14  49  13  15
28  1  14  50  13  15
29  1  15  51  14  16
30  1  15  52  14  16
31  1  16  17  53  15
32  1  16  17  54  15
33  1  17  18  55  16
34  1  17  18  16  56
35  1  18  57  19  17
36  1  18  17  58  19
37  1  19  18  59  20
38  1  19  20  18  60
39  1  20  21  19  61
40  1  20  19  21  62
41  1  21  20  63  64
