#C18_anion

56 atoms
3 atom types

55 bonds
3 bond types

108 angles
5 angle types

153 dihedrals
4 dihedral types

36 impropers
1 improper types

-17.64453  32.35547  xlo xhi
0  50.09907  ylo yhi
-1.02663  48.97337  zlo zhi

Masses

1  12.011
2  32.06
3  1.008

Pair Coeffs

1  0.066  3.5
2  0.355  3.55
3  0.03  2.5

Bond Coeffs

1  268.0  1.529
2  340.0  1.77
3  340.0  1.09

Angle Coeffs

1  58.35  112.7
2  50.0  108.6
3  37.5  110.7
4  33.0  107.8
5  35.0  109.5

Dihedral Coeffs

1  1.3  -0.2  0.2  0.0
2  1.262  -0.198  0.465  0.0
3  0.0  0.0  0.3  0.0
4  0.0  0.0  0.452  0.0

Improper Coeffs

1  0.0  -1.0  2.0

Atoms # full

1  1  1  -0.2094   1   1   0
2  1  1  -0.1575  -0.52   1   0
3  1  1  -0.1568  -1.07   1   1.42388
4  1  1  -0.1574  -2.597   1.0018   1.42551
5  1  1  -0.1577  -3.137   1.00359   2.85258
6  1  1  -0.1574  -4.662   1.00359   2.85911
7  1  1  -0.1577  -5.197   1.00719   4.28801
8  1  1  -0.1575  -6.721   1.00539   4.29455
9  1  1  -0.1576  -7.255   1.00718   5.7224
10  1  1  -0.1578  -8.78   1.00357   5.72731
11  1  1  -0.1579  -9.316   1.00355   7.15354
12  1  1  -0.1577  -10.841   0.99815   7.15845
13  1  1  -0.1579  -11.376   0.99994   8.58645
14  1  1  -0.1584  -12.902   0.99273   8.59301
15  1  1  -0.1568  -13.439   0.99631   10.02133
16  1  1  -0.1685  -14.966   0.9873   10.02954
17  1  1  -0.1504  -15.508   0.98907   11.46083
18  1  1  -0.0859  -17.042   0.97818   11.46087
19  1  2  -0.898  -17.645   0.9785   13.18999
20  1  3   0.0698   1.379   0.9987  -1.02663
21  1  3   0.0698   1.39   0.11314   0.5098
22  1  3   0.0698   1.389   1.88896   0.50667
23  1  3   0.0773  -0.881   0.11576  -0.53869
24  1  3   0.0773  -0.881   1.88294  -0.53932
25  1  3   0.0783  -0.701   1.88213   1.96161
26  1  3   0.0783  -0.703   0.11648   1.96083
27  1  3   0.0782  -2.968   0.11808   0.89249
28  1  3   0.0782  -2.966   1.88545   0.8911
29  1  3   0.0782  -2.766   1.88734   3.38659
30  1  3   0.0782  -2.766   0.12127   3.38876
31  1  3   0.0782  -5.034   0.11854   2.3288
32  1  3   0.0782  -5.034   1.8854   2.32327
33  1  3   0.0783  -4.825   1.89258   4.81835
34  1  3   0.0783  -4.823   0.12588   4.82357
35  1  3   0.078  -7.091   0.11999   3.7633
36  1  3   0.078  -7.093   1.88696   3.75816
37  1  3   0.0781  -6.885   1.89246   6.25456
38  1  3   0.0781  -6.882   0.12567   6.25778
39  1  3   0.0773  -9.148   0.11944   5.19288
40  1  3   0.0773  -9.152   1.88583   5.19226
41  1  3   0.0775  -8.948   1.88988   7.68553
42  1  3   0.0775  -8.941   0.12268   7.68893
43  1  3   0.0762  -11.207   0.11168   6.62635
44  1  3   0.0762  -11.214   1.87889   6.62197
45  1  3   0.0765  -11.007   1.88643   9.11657
46  1  3   0.0765  -11   0.11951   9.12161
47  1  3   0.0732  -13.268   0.1055   8.06175
48  1  3   0.0732  -13.276   1.87184   8.05417
49  1  3   0.0745  -13.071   1.88458   10.54944
50  1  3   0.0745  -13.061   0.11754   10.5578
51  1  3   0.0642  -15.329   0.0996   9.49764
52  1  3   0.0642  -15.34   1.86693   9.49149
53  1  3   0.0785  -15.129   1.87768   11.98321
54  1  3   0.0785  -15.116   0.10971   11.9892
55  1  3   0.0318  -17.387   0.09907   10.90279
56  1  3   0.0318  -17.399   1.84929   10.89815

Bonds

1  1  2  1
2  1  3  2
3  1  4  3
4  1  5  4
5  1  6  5
6  1  7  6
7  1  8  7
8  1  9  8
9  1  10  9
10  1  11  10
11  1  12  11
12  1  13  12
13  1  14  13
14  1  15  14
15  1  16  15
16  1  17  16
17  1  18  17
18  2  19  18
19  3  20  1
20  3  21  1
21  3  22  1
22  3  23  2
23  3  24  2
24  3  25  3
25  3  26  3
26  3  27  4
27  3  28  4
28  3  29  5
29  3  30  5
30  3  31  6
31  3  32  6
32  3  33  7
33  3  34  7
34  3  35  8
35  3  36  8
36  3  37  9
37  3  38  9
38  3  39  10
39  3  40  10
40  3  41  11
41  3  42  11
42  3  43  12
43  3  44  12
44  3  45  13
45  3  46  13
46  3  47  14
47  3  48  14
48  3  49  15
49  3  50  15
50  3  51  16
51  3  52  16
52  3  53  17
53  3  54  17
54  3  55  18
55  3  56  18

Angles

1  1  1  2  3
2  1  2  3  4
3  1  3  4  5
4  1  4  5  6
5  1  5  6  7
6  1  6  7  8
7  1  7  8  9
8  1  8  9  10
9  1  9  10  11
10  1  10  11  12
11  1  11  12  13
12  1  12  13  14
13  1  13  14  15
14  1  14  15  16
15  1  15  16  17
16  1  16  17  18
17  2  17  18  19
18  3  2  1  20
19  3  2  1  21
20  3  2  1  22
21  3  1  2  23
22  3  1  2  24
23  3  2  3  25
24  3  2  3  26
25  3  3  4  27
26  3  3  4  28
27  3  4  5  29
28  3  4  5  30
29  3  5  6  31
30  3  5  6  32
31  3  6  7  33
32  3  6  7  34
33  3  7  8  35
34  3  7  8  36
35  3  8  9  37
36  3  8  9  38
37  3  9  10  39
38  3  9  10  40
39  3  10  11  41
40  3  10  11  42
41  3  11  12  43
42  3  11  12  44
43  3  12  13  45
44  3  12  13  46
45  3  13  14  47
46  3  13  14  48
47  3  14  15  49
48  3  14  15  50
49  3  15  16  51
50  3  15  16  52
51  3  16  17  53
52  3  16  17  54
53  3  17  18  55
54  3  17  18  56
55  3  15  14  47
56  3  16  15  50
57  3  12  11  42
58  3  18  17  54
59  4  27  4  28
60  4  51  16  52
61  3  16  15  49
62  4  45  13  46
63  4  20  1  21
64  3  5  4  27
65  3  7  6  32
66  3  7  6  31
67  3  6  5  30
68  4  49  15  50
69  3  14  13  45
70  3  5  4  28
71  4  41  11  42
72  4  33  7  34
73  3  9  8  36
74  4  39  10  40
75  4  20  1  22
76  3  11  10  40
77  4  29  5  30
78  3  17  16  52
79  4  35  8  36
80  4  43  12  44
81  3  4  3  25
82  3  8  7  33
83  3  14  13  46
84  3  13  12  43
85  3  4  3  26
86  3  8  7  34
87  5  19  18  55
88  3  18  17  53
89  3  6  5  29
90  4  55  18  56
91  4  25  3  26
92  4  31  6  32
93  3  11  10  39
94  4  53  17  54
95  4  47  14  48
96  3  10  9  38
97  3  3  2  23
98  3  9  8  35
99  3  10  9  37
100  4  37  9  38
101  3  15  14  48
102  4  23  2  24
103  3  13  12  44
104  5  19  18  56
105  4  21  1  22
106  3  3  2  24
107  3  17  16  51
108  3  12  11  41

Dihedrals

1  1  4  3  2  1
2  1  5  4  3  2
3  1  6  5  4  3
4  1  7  6  5  4
5  1  8  7  6  5
6  1  9  8  7  6
7  1  10  9  8  7
8  1  11  10  9  8
9  1  12  11  10  9
10  1  13  12  11  10
11  1  14  13  12  11
12  1  15  14  13  12
13  1  16  15  14  13
14  1  17  16  15  14
15  1  18  17  16  15
16  2  19  18  17  16
17  3  20  1  2  3
18  3  52  16  15  50
19  3  25  3  4  5
20  3  28  4  3  2
21  3  42  11  12  13
22  3  29  5  4  28
23  3  30  5  4  27
24  3  54  17  16  15
25  3  51  16  17  18
26  3  35  8  9  10
27  3  38  9  8  7
28  4  54  17  18  19
29  3  42  11  10  39
30  3  41  11  10  40
31  3  23  2  1  21
32  3  24  2  1  20
33  3  45  13  14  15
34  3  54  17  16  51
35  3  53  17  16  52
36  3  53  17  16  15
37  3  38  9  10  11
38  3  48  14  13  12
39  3  26  3  2  1
40  3  33  7  6  31
41  3  55  18  17  54
42  3  23  2  3  4
43  3  47  14  13  45
44  3  32  6  7  8
45  3  27  4  3  25
46  3  46  13  12  44
47  3  32  6  5  30
48  3  40  10  9  38
49  3  35  8  7  33
50  3  40  10  9  37
51  3  40  10  9  8
52  3  37  9  10  11
53  3  45  13  12  11
54  3  24  2  1  22
55  3  27  4  3  26
56  3  51  16  15  50
57  3  52  16  15  49
58  3  36  8  9  10
59  3  30  5  4  3
60  3  34  7  8  9
61  3  33  7  6  5
62  3  53  17  16  51
63  3  51  16  15  49
64  3  43  12  11  10
65  3  39  10  9  8
66  3  42  11  10  40
67  3  29  5  4  27
68  3  37  9  8  35
69  3  52  16  15  14
70  3  49  15  16  17
71  3  47  14  13  12
72  3  26  3  4  5
73  3  45  13  12  44
74  3  46  13  12  43
75  3  21  1  2  3
76  3  27  4  5  6
77  3  36  8  7  33
78  3  35  8  7  34
79  3  50  15  14  48
80  3  45  13  12  43
81  3  39  10  9  37
82  3  44  12  11  42
83  3  49  15  14  48
84  3  50  15  14  47
85  3  48  14  13  46
86  3  54  17  16  52
87  3  34  7  6  32
88  3  24  2  3  4
89  3  28  4  3  25
90  3  28  4  5  6
91  3  30  5  6  7
92  3  41  11  10  39
93  3  24  2  1  21
94  3  23  2  1  22
95  3  31  6  7  8
96  3  34  7  6  5
97  3  27  4  3  2
98  3  32  6  5  4
99  3  49  15  14  13
100  3  29  5  6  7
101  3  43  12  11  42
102  3  56  18  17  54
103  3  55  18  17  16
104  3  46  13  14  15
105  3  43  12  11  41
106  3  37  9  8  7
107  3  25  3  2  23
108  3  35  8  7  6
109  3  56  18  17  53
110  3  39  10  9  38
111  3  26  3  2  24
112  3  31  6  5  29
113  3  22  1  2  3
114  3  51  16  15  14
115  3  37  9  8  36
116  3  38  9  8  35
117  3  55  18  17  53
118  3  36  8  7  6
119  3  40  10  11  12
120  3  32  6  5  29
121  3  31  6  5  30
122  3  33  7  8  9
123  3  49  15  14  47
124  3  43  12  13  14
125  3  52  16  17  18
126  3  44  12  13  14
127  3  46  13  12  11
128  3  30  5  4  28
129  3  26  3  2  23
130  3  25  3  2  24
131  3  39  10  11  12
132  3  36  8  7  34
133  3  29  5  4  3
134  3  48  14  15  16
135  3  44  12  11  41
136  3  50  15  16  17
137  3  23  2  1  20
138  3  42  11  10  9
139  3  25  3  2  1
140  3  34  7  6  31
141  3  33  7  6  32
142  3  47  14  13  46
143  3  48  14  13  45
144  3  28  4  3  26
145  3  47  14  15  16
146  3  50  15  14  13
147  3  31  6  5  4
148  3  38  9  8  36
149  3  41  11  10  9
150  3  44  12  11  10
151  3  41  11  12  13
152  3  56  18  17  16
153  4  53  17  18  19

Impropers

1  1  1  2  20  21
2  1  1  2  20  22
3  1  2  1  3  23
4  1  2  1  3  24
5  1  3  25  2  4
6  1  3  26  4  2
7  1  4  27  5  3
8  1  4  3  28  5
9  1  5  4  29  6
10  1  5  4  30  6
11  1  6  7  5  31
12  1  6  5  7  32
13  1  7  33  6  8
14  1  7  34  6  8
15  1  8  9  35  7
16  1  8  9  36  7
17  1  9  10  37  8
18  1  9  10  38  8
19  1  10  9  11  39
20  1  10  9  11  40
21  1  11  41  10  12
22  1  11  42  12  10
23  1  12  43  13  11
24  1  12  11  44  13
25  1  13  12  45  14
26  1  13  12  46  14
27  1  14  15  13  47
28  1  14  13  15  48
29  1  15  49  14  16
30  1  15  50  14  16
31  1  16  17  51  15
32  1  16  17  52  15
33  1  17  18  53  16
34  1  17  18  54  16
35  1  18  17  19  55
36  1  18  17  19  56
