#C18_thiol

57 atoms
4 atom types

56 bonds
4 bond types

109 angles
6 angle types

156 dihedrals
6 dihedral types

36 impropers
1 improper types

-17.67652  32.32348  xlo xhi
-0.19239  49.80761  ylo yhi
-1.02685  48.97315  zlo zhi

Masses

1  12.011
2  32.06
3  1.008
4  1.008

Pair Coeffs

1  0.066  3.5
2  0.425  3.6
3  0.03  2.5
4  0.0  0.0

Bond Coeffs

1  268.0  1.529
2  222.0  1.81
3  340.0  1.09
4  274.0  1.336

Angle Coeffs

1  58.35  112.7
2  50.0  108.6
3  37.5  110.7
4  44.0  96.0
5  33.0  107.8
6  35.0  109.5

Dihedral Coeffs

1  1.3  -0.2  0.2  0.0
2  1.262  -0.198  0.465  0.0
3  0.0  0.0  0.3  0.0
4  -0.759  -0.282  0.68  0.0
5  0.0  0.0  0.452  0.0
6  0.0  0.0  0.48  0.0

Improper Coeffs

1  0.0  -1.0  2.0

Atoms # full

1  1  1  -0.2389   1   1   0
2  1  1  -0.1797  -0.52   1   0
3  1  1  -0.1789  -1.071   1   1.42337
4  1  1  -0.1791  -2.599   0.9982   1.42174
5  1  1  -0.1797  -3.142   0.99641   2.84961
6  1  1  -0.1795  -4.667   0.9964   2.85287
7  1  1  -0.1795  -5.206   0.99281   4.27919
8  1  1  -0.1795  -6.731   0.99461   4.28245
9  1  1  -0.1797  -7.268   0.99282   5.70974
10  1  1  -0.1796  -8.793   0.99281   5.71301
11  1  1  -0.1795  -9.33   0.98922   7.13983
12  1  1  -0.1795  -10.855   0.98741   7.14309
13  1  1  -0.1795  -11.393   0.98201   8.57063
14  1  1  -0.1792  -12.918   0.982   8.57553
15  1  1  -0.1788  -13.456   0.9784   10.00369
16  1  1  -0.1803  -14.983   0.98019   10.0135
17  1  1  -0.1843  -15.521   0.97477   11.44445
18  1  1   0.0123  -17.046   0.97478   11.44772
19  1  2  -0.4413  -17.677   0.96619   13.14968
20  1  3   0.0808   1.378   0.9987  -1.02685
21  1  3   0.0808   1.39   0.11232   0.50755
22  1  3   0.0808   1.39   1.88844   0.50637
23  1  3   0.0883  -0.88   0.11674  -0.53952
24  1  3   0.0883  -0.88   1.8833  -0.53954
25  1  3   0.0895  -0.704   1.88342   1.96026
26  1  3   0.0895  -0.702   0.11704   1.96086
27  1  3   0.0897  -2.966   0.11509   0.88687
28  1  3   0.0897  -2.968   1.88248   0.88899
29  1  3   0.0896  -2.773   1.879   3.38677
30  1  3   0.0896  -2.772   0.11213   3.38359
31  1  3   0.0897  -5.038   0.11351   2.31557
32  1  3   0.0897  -5.037   1.88058   2.31947
33  1  3   0.0898  -4.834   1.87428   4.81604
34  1  3   0.0898  -4.837   0.10762   4.81176
35  1  3   0.0898  -7.102   0.11265   3.74645
36  1  3   0.0898  -7.1   1.87926   3.74946
37  1  3   0.0899  -6.897   1.87578   6.24477
38  1  3   0.0899  -6.898   0.10905   6.24338
39  1  3   0.0899  -9.162   0.11056   5.17609
40  1  3   0.0899  -9.163   1.87768   5.1806
41  1  3   0.0901  -8.96   1.87199   7.67547
42  1  3   0.0901  -8.958   0.10518   7.67176
43  1  3   0.0901  -11.224   0.10558   6.60571
44  1  3   0.0901  -11.226   1.87234   6.61137
45  1  3   0.0904  -11.021   1.86263   9.10804
46  1  3   0.0904  -11.021   0.09608   9.10022
47  1  3   0.0904  -13.288   0.10035   8.03796
48  1  3   0.0904  -13.288   1.86725   8.04329
49  1  3   0.0915  -13.082   1.8595   10.53951
50  1  3   0.0915  -13.084   0.09295   10.5333
51  1  3   0.0916  -15.354   0.09939   9.47531
52  1  3   0.0916  -15.352   1.86635   9.4828
53  1  3   0.1018  -15.141   1.85703   11.97469
54  1  3   0.1018  -15.142   0.08748   11.96671
55  1  3   0.1261  -17.432   0.09123   10.92935
56  1  3   0.1261  -17.431   1.86448   10.93911
57  1  4   0.1454  -17.11  -0.19239   13.5173

Bonds

1  1  2  1
2  1  3  2
3  1  4  3
4  1  5  4
5  1  6  5
6  1  7  6
7  1  8  7
8  1  9  8
9  1  10  9
10  1  11  10
11  1  12  11
12  1  13  12
13  1  14  13
14  1  15  14
15  1  16  15
16  1  17  16
17  1  18  17
18  2  19  18
19  3  20  1
20  3  21  1
21  3  22  1
22  3  23  2
23  3  24  2
24  3  25  3
25  3  26  3
26  3  27  4
27  3  28  4
28  3  29  5
29  3  30  5
30  3  31  6
31  3  32  6
32  3  33  7
33  3  34  7
34  3  35  8
35  3  36  8
36  3  37  9
37  3  38  9
38  3  39  10
39  3  40  10
40  3  41  11
41  3  42  11
42  3  43  12
43  3  44  12
44  3  45  13
45  3  46  13
46  3  47  14
47  3  48  14
48  3  49  15
49  3  50  15
50  3  51  16
51  3  52  16
52  3  53  17
53  3  54  17
54  3  55  18
55  3  56  18
56  4  57  19

Angles

1  1  1  2  3
2  1  2  3  4
3  1  3  4  5
4  1  4  5  6
5  1  5  6  7
6  1  6  7  8
7  1  7  8  9
8  1  8  9  10
9  1  9  10  11
10  1  10  11  12
11  1  11  12  13
12  1  12  13  14
13  1  13  14  15
14  1  14  15  16
15  1  15  16  17
16  1  16  17  18
17  2  17  18  19
18  3  2  1  20
19  3  2  1  21
20  3  2  1  22
21  3  1  2  23
22  3  1  2  24
23  3  2  3  25
24  3  2  3  26
25  3  3  4  27
26  3  3  4  28
27  3  4  5  29
28  3  4  5  30
29  3  5  6  31
30  3  5  6  32
31  3  6  7  33
32  3  6  7  34
33  3  7  8  35
34  3  7  8  36
35  3  8  9  37
36  3  8  9  38
37  3  9  10  39
38  3  9  10  40
39  3  10  11  41
40  3  10  11  42
41  3  11  12  43
42  3  11  12  44
43  3  12  13  45
44  3  12  13  46
45  3  13  14  47
46  3  13  14  48
47  3  14  15  49
48  3  14  15  50
49  3  15  16  51
50  3  15  16  52
51  3  16  17  53
52  3  16  17  54
53  3  17  18  55
54  3  17  18  56
55  4  18  19  57
56  3  15  14  47
57  3  16  15  50
58  3  12  11  42
59  3  18  17  54
60  5  27  4  28
61  5  51  16  52
62  3  16  15  49
63  5  45  13  46
64  5  20  1  21
65  3  5  4  27
66  3  7  6  32
67  3  7  6  31
68  3  6  5  30
69  5  49  15  50
70  3  14  13  45
71  3  5  4  28
72  5  41  11  42
73  5  33  7  34
74  3  9  8  36
75  5  39  10  40
76  5  20  1  22
77  3  11  10  40
78  5  29  5  30
79  3  17  16  52
80  5  35  8  36
81  5  43  12  44
82  3  4  3  25
83  3  8  7  33
84  3  14  13  46
85  3  13  12  43
86  3  4  3  26
87  3  8  7  34
88  6  19  18  55
89  3  18  17  53
90  3  6  5  29
91  5  55  18  56
92  5  25  3  26
93  5  31  6  32
94  3  11  10  39
95  5  53  17  54
96  5  47  14  48
97  3  10  9  38
98  3  3  2  23
99  3  9  8  35
100  3  10  9  37
101  5  37  9  38
102  3  15  14  48
103  5  23  2  24
104  3  13  12  44
105  6  19  18  56
106  5  21  1  22
107  3  3  2  24
108  3  17  16  51
109  3  12  11  41

Dihedrals

1  1  4  3  2  1
2  1  5  4  3  2
3  1  6  5  4  3
4  1  7  6  5  4
5  1  8  7  6  5
6  1  9  8  7  6
7  1  10  9  8  7
8  1  11  10  9  8
9  1  12  11  10  9
10  1  13  12  11  10
11  1  14  13  12  11
12  1  15  14  13  12
13  1  16  15  14  13
14  1  17  16  15  14
15  1  18  17  16  15
16  2  19  18  17  16
17  3  20  1  2  3
18  4  57  19  18  17
19  3  52  16  15  50
20  3  25  3  4  5
21  3  28  4  3  2
22  3  42  11  12  13
23  3  29  5  4  28
24  3  30  5  4  27
25  3  54  17  16  15
26  3  51  16  17  18
27  3  35  8  9  10
28  3  38  9  8  7
29  5  54  17  18  19
30  3  42  11  10  39
31  3  41  11  10  40
32  3  23  2  1  21
33  3  24  2  1  20
34  3  45  13  14  15
35  3  54  17  16  51
36  3  53  17  16  52
37  3  53  17  16  15
38  3  38  9  10  11
39  3  48  14  13  12
40  3  26  3  2  1
41  3  33  7  6  31
42  3  55  18  17  54
43  3  23  2  3  4
44  3  47  14  13  45
45  3  32  6  7  8
46  3  27  4  3  25
47  3  46  13  12  44
48  3  32  6  5  30
49  3  40  10  9  38
50  3  35  8  7  33
51  3  40  10  9  37
52  3  40  10  9  8
53  3  37  9  10  11
54  3  45  13  12  11
55  3  24  2  1  22
56  3  27  4  3  26
57  3  51  16  15  50
58  3  52  16  15  49
59  3  36  8  9  10
60  3  30  5  4  3
61  3  34  7  8  9
62  3  33  7  6  5
63  3  53  17  16  51
64  3  51  16  15  49
65  3  43  12  11  10
66  3  39  10  9  8
67  3  42  11  10  40
68  3  29  5  4  27
69  3  37  9  8  35
70  3  52  16  15  14
71  3  49  15  16  17
72  3  47  14  13  12
73  3  26  3  4  5
74  3  45  13  12  44
75  3  46  13  12  43
76  3  21  1  2  3
77  3  27  4  5  6
78  3  36  8  7  33
79  3  35  8  7  34
80  3  50  15  14  48
81  3  45  13  12  43
82  3  39  10  9  37
83  3  44  12  11  42
84  3  49  15  14  48
85  3  50  15  14  47
86  6  57  19  18  55
87  3  48  14  13  46
88  3  54  17  16  52
89  3  34  7  6  32
90  3  28  4  3  26
91  3  24  2  3  4
92  3  28  4  3  25
93  3  28  4  5  6
94  3  30  5  6  7
95  3  41  11  10  39
96  3  24  2  1  21
97  3  23  2  1  22
98  3  31  6  7  8
99  3  34  7  6  5
100  3  27  4  3  2
101  3  32  6  5  4
102  3  49  15  14  13
103  3  29  5  6  7
104  3  43  12  11  42
105  3  56  18  17  54
106  3  55  18  17  16
107  3  46  13  14  15
108  3  43  12  11  41
109  3  37  9  8  7
110  3  25  3  2  23
111  3  35  8  7  6
112  3  56  18  17  53
113  3  39  10  9  38
114  3  26  3  2  24
115  3  31  6  5  29
116  3  22  1  2  3
117  3  51  16  15  14
118  3  37  9  8  36
119  3  38  9  8  35
120  3  55  18  17  53
121  3  36  8  7  6
122  3  40  10  11  12
123  3  32  6  5  29
124  3  31  6  5  30
125  3  33  7  8  9
126  3  49  15  14  47
127  3  43  12  13  14
128  3  52  16  17  18
129  3  44  12  13  14
130  3  46  13  12  11
131  3  30  5  4  28
132  3  26  3  2  23
133  3  25  3  2  24
134  3  39  10  11  12
135  3  36  8  7  34
136  3  29  5  4  3
137  3  48  14  15  16
138  3  44  12  11  41
139  3  50  15  16  17
140  3  23  2  1  20
141  3  42  11  10  9
142  3  25  3  2  1
143  3  34  7  6  31
144  3  33  7  6  32
145  3  47  14  13  46
146  3  48  14  13  45
147  6  57  19  18  56
148  3  47  14  15  16
149  3  50  15  14  13
150  3  31  6  5  4
151  3  38  9  8  36
152  3  41  11  10  9
153  3  44  12  11  10
154  3  41  11  12  13
155  3  56  18  17  16
156  5  53  17  18  19

Impropers

1  1  1  2  20  21
2  1  1  2  20  22
3  1  2  1  3  23
4  1  2  1  3  24
5  1  3  25  2  4
6  1  3  26  4  2
7  1  4  27  5  3
8  1  4  3  28  5
9  1  5  4  29  6
10  1  5  4  30  6
11  1  6  7  5  31
12  1  6  5  7  32
13  1  7  33  6  8
14  1  7  34  6  8
15  1  8  9  35  7
16  1  8  9  36  7
17  1  9  10  37  8
18  1  9  10  38  8
19  1  10  9  11  39
20  1  10  9  11  40
21  1  11  41  10  12
22  1  11  42  12  10
23  1  12  43  13  11
24  1  12  11  44  13
25  1  13  12  45  14
26  1  13  12  46  14
27  1  14  15  13  47
28  1  14  13  15  48
29  1  15  49  14  16
30  1  15  50  14  16
31  1  16  17  51  15
32  1  16  17  52  15
33  1  17  18  53  16
34  1  17  18  54  16
35  1  18  17  19  55
36  1  18  17  19  56
