LAMMPS data file Created by LigParGen - (Written by Leela S. Dodda)

      56 atoms
      55 bonds
     108 angles
     153 dihedrals
      36 impropers
 
      56 atom types
      55 bond types
     108 angle types
     153 dihedral types
      36 improper types
 
  -17.644530    32.355470 xlo xhi
    0.099070    50.099070 ylo yhi
   -1.026630    48.973370 zlo zhi

Masses

       1     12.011  
       2     12.011  
       3     12.011  
       4     12.011  
       5     12.011  
       6     12.011  
       7     12.011  
       8     12.011  
       9     12.011  
      10     12.011  
      11     12.011  
      12     12.011  
      13     12.011  
      14     12.011  
      15     12.011  
      16     12.011  
      17     12.011  
      18     12.011  
      19     32.060  
      20      1.008  
      21      1.008  
      22      1.008  
      23      1.008  
      24      1.008  
      25      1.008  
      26      1.008  
      27      1.008  
      28      1.008  
      29      1.008  
      30      1.008  
      31      1.008  
      32      1.008  
      33      1.008  
      34      1.008  
      35      1.008  
      36      1.008  
      37      1.008  
      38      1.008  
      39      1.008  
      40      1.008  
      41      1.008  
      42      1.008  
      43      1.008  
      44      1.008  
      45      1.008  
      46      1.008  
      47      1.008  
      48      1.008  
      49      1.008  
      50      1.008  
      51      1.008  
      52      1.008  
      53      1.008  
      54      1.008  
      55      1.008  
      56      1.008  

Pair Coeffs 

       1      0.066  3.5000000 
       2      0.066  3.5000000 
       3      0.066  3.5000000 
       4      0.066  3.5000000 
       5      0.066  3.5000000 
       6      0.066  3.5000000 
       7      0.066  3.5000000 
       8      0.066  3.5000000 
       9      0.066  3.5000000 
      10      0.066  3.5000000 
      11      0.066  3.5000000 
      12      0.066  3.5000000 
      13      0.066  3.5000000 
      14      0.066  3.5000000 
      15      0.066  3.5000000 
      16      0.066  3.5000000 
      17      0.066  3.5000000 
      18      0.066  3.5000000 
      19      0.355  3.5500000 
      20      0.030  2.5000000 
      21      0.030  2.5000000 
      22      0.030  2.5000000 
      23      0.030  2.5000000 
      24      0.030  2.5000000 
      25      0.030  2.5000000 
      26      0.030  2.5000000 
      27      0.030  2.5000000 
      28      0.030  2.5000000 
      29      0.030  2.5000000 
      30      0.030  2.5000000 
      31      0.030  2.5000000 
      32      0.030  2.5000000 
      33      0.030  2.5000000 
      34      0.030  2.5000000 
      35      0.030  2.5000000 
      36      0.030  2.5000000 
      37      0.030  2.5000000 
      38      0.030  2.5000000 
      39      0.030  2.5000000 
      40      0.030  2.5000000 
      41      0.030  2.5000000 
      42      0.030  2.5000000 
      43      0.030  2.5000000 
      44      0.030  2.5000000 
      45      0.030  2.5000000 
      46      0.030  2.5000000 
      47      0.030  2.5000000 
      48      0.030  2.5000000 
      49      0.030  2.5000000 
      50      0.030  2.5000000 
      51      0.030  2.5000000 
      52      0.030  2.5000000 
      53      0.030  2.5000000 
      54      0.030  2.5000000 
      55      0.030  2.5000000 
      56      0.030  2.5000000 

Bond Coeffs 

       1   268.0000     1.5290 
       2   268.0000     1.5290 
       3   268.0000     1.5290 
       4   268.0000     1.5290 
       5   268.0000     1.5290 
       6   268.0000     1.5290 
       7   268.0000     1.5290 
       8   268.0000     1.5290 
       9   268.0000     1.5290 
      10   268.0000     1.5290 
      11   268.0000     1.5290 
      12   268.0000     1.5290 
      13   268.0000     1.5290 
      14   268.0000     1.5290 
      15   268.0000     1.5290 
      16   268.0000     1.5290 
      17   268.0000     1.5290 
      18   340.0000     1.7700 
      19   340.0000     1.0900 
      20   340.0000     1.0900 
      21   340.0000     1.0900 
      22   340.0000     1.0900 
      23   340.0000     1.0900 
      24   340.0000     1.0900 
      25   340.0000     1.0900 
      26   340.0000     1.0900 
      27   340.0000     1.0900 
      28   340.0000     1.0900 
      29   340.0000     1.0900 
      30   340.0000     1.0900 
      31   340.0000     1.0900 
      32   340.0000     1.0900 
      33   340.0000     1.0900 
      34   340.0000     1.0900 
      35   340.0000     1.0900 
      36   340.0000     1.0900 
      37   340.0000     1.0900 
      38   340.0000     1.0900 
      39   340.0000     1.0900 
      40   340.0000     1.0900 
      41   340.0000     1.0900 
      42   340.0000     1.0900 
      43   340.0000     1.0900 
      44   340.0000     1.0900 
      45   340.0000     1.0900 
      46   340.0000     1.0900 
      47   340.0000     1.0900 
      48   340.0000     1.0900 
      49   340.0000     1.0900 
      50   340.0000     1.0900 
      51   340.0000     1.0900 
      52   340.0000     1.0900 
      53   340.0000     1.0900 
      54   340.0000     1.0900 
      55   340.0000     1.0900 

Angle Coeffs 

       1     58.350    112.700
       2     58.350    112.700
       3     58.350    112.700
       4     58.350    112.700
       5     58.350    112.700
       6     58.350    112.700
       7     58.350    112.700
       8     58.350    112.700
       9     58.350    112.700
      10     58.350    112.700
      11     58.350    112.700
      12     58.350    112.700
      13     58.350    112.700
      14     58.350    112.700
      15     58.350    112.700
      16     58.350    112.700
      17     50.000    108.600
      18     37.500    110.700
      19     37.500    110.700
      20     37.500    110.700
      21     37.500    110.700
      22     37.500    110.700
      23     37.500    110.700
      24     37.500    110.700
      25     37.500    110.700
      26     37.500    110.700
      27     37.500    110.700
      28     37.500    110.700
      29     37.500    110.700
      30     37.500    110.700
      31     37.500    110.700
      32     37.500    110.700
      33     37.500    110.700
      34     37.500    110.700
      35     37.500    110.700
      36     37.500    110.700
      37     37.500    110.700
      38     37.500    110.700
      39     37.500    110.700
      40     37.500    110.700
      41     37.500    110.700
      42     37.500    110.700
      43     37.500    110.700
      44     37.500    110.700
      45     37.500    110.700
      46     37.500    110.700
      47     37.500    110.700
      48     37.500    110.700
      49     37.500    110.700
      50     37.500    110.700
      51     37.500    110.700
      52     37.500    110.700
      53     37.500    110.700
      54     37.500    110.700
      55     37.500    110.700
      56     37.500    110.700
      57     37.500    110.700
      58     37.500    110.700
      59     33.000    107.800
      60     33.000    107.800
      61     37.500    110.700
      62     33.000    107.800
      63     33.000    107.800
      64     37.500    110.700
      65     37.500    110.700
      66     37.500    110.700
      67     37.500    110.700
      68     33.000    107.800
      69     37.500    110.700
      70     37.500    110.700
      71     33.000    107.800
      72     33.000    107.800
      73     37.500    110.700
      74     33.000    107.800
      75     33.000    107.800
      76     37.500    110.700
      77     33.000    107.800
      78     37.500    110.700
      79     33.000    107.800
      80     33.000    107.800
      81     37.500    110.700
      82     37.500    110.700
      83     37.500    110.700
      84     37.500    110.700
      85     37.500    110.700
      86     37.500    110.700
      87     35.000    109.500
      88     37.500    110.700
      89     37.500    110.700
      90     33.000    107.800
      91     33.000    107.800
      92     33.000    107.800
      93     37.500    110.700
      94     33.000    107.800
      95     33.000    107.800
      96     37.500    110.700
      97     37.500    110.700
      98     37.500    110.700
      99     37.500    110.700
     100     33.000    107.800
     101     37.500    110.700
     102     33.000    107.800
     103     37.500    110.700
     104     35.000    109.500
     105     33.000    107.800
     106     37.500    110.700
     107     37.500    110.700
     108     37.500    110.700

Dihedral Coeffs  

       1      1.300     -0.200      0.200      0.000 
       2      1.300     -0.200      0.200      0.000 
       3      1.300     -0.200      0.200      0.000 
       4      1.300     -0.200      0.200      0.000 
       5      1.300     -0.200      0.200      0.000 
       6      1.300     -0.200      0.200      0.000 
       7      1.300     -0.200      0.200      0.000 
       8      1.300     -0.200      0.200      0.000 
       9      1.300     -0.200      0.200      0.000 
      10      1.300     -0.200      0.200      0.000 
      11      1.300     -0.200      0.200      0.000 
      12      1.300     -0.200      0.200      0.000 
      13      1.300     -0.200      0.200      0.000 
      14      1.300     -0.200      0.200      0.000 
      15      1.300     -0.200      0.200      0.000 
      16      1.262     -0.198      0.465      0.000 
      17      0.000      0.000      0.300      0.000 
      18      0.000      0.000      0.300      0.000 
      19      0.000      0.000      0.300      0.000 
      20      0.000      0.000      0.300      0.000 
      21      0.000      0.000      0.300      0.000 
      22      0.000      0.000      0.300      0.000 
      23      0.000      0.000      0.300      0.000 
      24      0.000      0.000      0.300      0.000 
      25      0.000      0.000      0.300      0.000 
      26      0.000      0.000      0.300      0.000 
      27      0.000      0.000      0.300      0.000 
      28      0.000      0.000      0.452      0.000 
      29      0.000      0.000      0.300      0.000 
      30      0.000      0.000      0.300      0.000 
      31      0.000      0.000      0.300      0.000 
      32      0.000      0.000      0.300      0.000 
      33      0.000      0.000      0.300      0.000 
      34      0.000      0.000      0.300      0.000 
      35      0.000      0.000      0.300      0.000 
      36      0.000      0.000      0.300      0.000 
      37      0.000      0.000      0.300      0.000 
      38      0.000      0.000      0.300      0.000 
      39      0.000      0.000      0.300      0.000 
      40      0.000      0.000      0.300      0.000 
      41      0.000      0.000      0.300      0.000 
      42      0.000      0.000      0.300      0.000 
      43      0.000      0.000      0.300      0.000 
      44      0.000      0.000      0.300      0.000 
      45      0.000      0.000      0.300      0.000 
      46      0.000      0.000      0.300      0.000 
      47      0.000      0.000      0.300      0.000 
      48      0.000      0.000      0.300      0.000 
      49      0.000      0.000      0.300      0.000 
      50      0.000      0.000      0.300      0.000 
      51      0.000      0.000      0.300      0.000 
      52      0.000      0.000      0.300      0.000 
      53      0.000      0.000      0.300      0.000 
      54      0.000      0.000      0.300      0.000 
      55      0.000      0.000      0.300      0.000 
      56      0.000      0.000      0.300      0.000 
      57      0.000      0.000      0.300      0.000 
      58      0.000      0.000      0.300      0.000 
      59      0.000      0.000      0.300      0.000 
      60      0.000      0.000      0.300      0.000 
      61      0.000      0.000      0.300      0.000 
      62      0.000      0.000      0.300      0.000 
      63      0.000      0.000      0.300      0.000 
      64      0.000      0.000      0.300      0.000 
      65      0.000      0.000      0.300      0.000 
      66      0.000      0.000      0.300      0.000 
      67      0.000      0.000      0.300      0.000 
      68      0.000      0.000      0.300      0.000 
      69      0.000      0.000      0.300      0.000 
      70      0.000      0.000      0.300      0.000 
      71      0.000      0.000      0.300      0.000 
      72      0.000      0.000      0.300      0.000 
      73      0.000      0.000      0.300      0.000 
      74      0.000      0.000      0.300      0.000 
      75      0.000      0.000      0.300      0.000 
      76      0.000      0.000      0.300      0.000 
      77      0.000      0.000      0.300      0.000 
      78      0.000      0.000      0.300      0.000 
      79      0.000      0.000      0.300      0.000 
      80      0.000      0.000      0.300      0.000 
      81      0.000      0.000      0.300      0.000 
      82      0.000      0.000      0.300      0.000 
      83      0.000      0.000      0.300      0.000 
      84      0.000      0.000      0.300      0.000 
      85      0.000      0.000      0.300      0.000 
      86      0.000      0.000      0.300      0.000 
      87      0.000      0.000      0.300      0.000 
      88      0.000      0.000      0.300      0.000 
      89      0.000      0.000      0.300      0.000 
      90      0.000      0.000      0.300      0.000 
      91      0.000      0.000      0.300      0.000 
      92      0.000      0.000      0.300      0.000 
      93      0.000      0.000      0.300      0.000 
      94      0.000      0.000      0.300      0.000 
      95      0.000      0.000      0.300      0.000 
      96      0.000      0.000      0.300      0.000 
      97      0.000      0.000      0.300      0.000 
      98      0.000      0.000      0.300      0.000 
      99      0.000      0.000      0.300      0.000 
     100      0.000      0.000      0.300      0.000 
     101      0.000      0.000      0.300      0.000 
     102      0.000      0.000      0.300      0.000 
     103      0.000      0.000      0.300      0.000 
     104      0.000      0.000      0.300      0.000 
     105      0.000      0.000      0.300      0.000 
     106      0.000      0.000      0.300      0.000 
     107      0.000      0.000      0.300      0.000 
     108      0.000      0.000      0.300      0.000 
     109      0.000      0.000      0.300      0.000 
     110      0.000      0.000      0.300      0.000 
     111      0.000      0.000      0.300      0.000 
     112      0.000      0.000      0.300      0.000 
     113      0.000      0.000      0.300      0.000 
     114      0.000      0.000      0.300      0.000 
     115      0.000      0.000      0.300      0.000 
     116      0.000      0.000      0.300      0.000 
     117      0.000      0.000      0.300      0.000 
     118      0.000      0.000      0.300      0.000 
     119      0.000      0.000      0.300      0.000 
     120      0.000      0.000      0.300      0.000 
     121      0.000      0.000      0.300      0.000 
     122      0.000      0.000      0.300      0.000 
     123      0.000      0.000      0.300      0.000 
     124      0.000      0.000      0.300      0.000 
     125      0.000      0.000      0.300      0.000 
     126      0.000      0.000      0.300      0.000 
     127      0.000      0.000      0.300      0.000 
     128      0.000      0.000      0.300      0.000 
     129      0.000      0.000      0.300      0.000 
     130      0.000      0.000      0.300      0.000 
     131      0.000      0.000      0.300      0.000 
     132      0.000      0.000      0.300      0.000 
     133      0.000      0.000      0.300      0.000 
     134      0.000      0.000      0.300      0.000 
     135      0.000      0.000      0.300      0.000 
     136      0.000      0.000      0.300      0.000 
     137      0.000      0.000      0.300      0.000 
     138      0.000      0.000      0.300      0.000 
     139      0.000      0.000      0.300      0.000 
     140      0.000      0.000      0.300      0.000 
     141      0.000      0.000      0.300      0.000 
     142      0.000      0.000      0.300      0.000 
     143      0.000      0.000      0.300      0.000 
     144      0.000      0.000      0.300      0.000 
     145      0.000      0.000      0.300      0.000 
     146      0.000      0.000      0.300      0.000 
     147      0.000      0.000      0.300      0.000 
     148      0.000      0.000      0.300      0.000 
     149      0.000      0.000      0.300      0.000 
     150      0.000      0.000      0.300      0.000 
     151      0.000      0.000      0.300      0.000 
     152      0.000      0.000      0.300      0.000 
     153      0.000      0.000      0.452      0.000 

Improper Coeffs 

       1      0.000      -1       2 
       2      0.000      -1       2 
       3      0.000      -1       2 
       4      0.000      -1       2 
       5      0.000      -1       2 
       6      0.000      -1       2 
       7      0.000      -1       2 
       8      0.000      -1       2 
       9      0.000      -1       2 
      10      0.000      -1       2 
      11      0.000      -1       2 
      12      0.000      -1       2 
      13      0.000      -1       2 
      14      0.000      -1       2 
      15      0.000      -1       2 
      16      0.000      -1       2 
      17      0.000      -1       2 
      18      0.000      -1       2 
      19      0.000      -1       2 
      20      0.000      -1       2 
      21      0.000      -1       2 
      22      0.000      -1       2 
      23      0.000      -1       2 
      24      0.000      -1       2 
      25      0.000      -1       2 
      26      0.000      -1       2 
      27      0.000      -1       2 
      28      0.000      -1       2 
      29      0.000      -1       2 
      30      0.000      -1       2 
      31      0.000      -1       2 
      32      0.000      -1       2 
      33      0.000      -1       2 
      34      0.000      -1       2 
      35      0.000      -1       2 
      36      0.000      -1       2 

Atoms 

     1      1      1 -0.20940000    1.000  1.00000  0.00000
     2      1      2 -0.15750000   -0.520  1.00000  0.00000
     3      1      3 -0.15680000   -1.070  1.00000  1.42388
     4      1      4 -0.15740000   -2.597  1.00180  1.42551
     5      1      5 -0.15770000   -3.137  1.00359  2.85258
     6      1      6 -0.15740000   -4.662  1.00359  2.85911
     7      1      7 -0.15770000   -5.197  1.00719  4.28801
     8      1      8 -0.15750000   -6.721  1.00539  4.29455
     9      1      9 -0.15760000   -7.255  1.00718  5.72240
    10      1     10 -0.15780000   -8.780  1.00357  5.72731
    11      1     11 -0.15790000   -9.316  1.00355  7.15354
    12      1     12 -0.15770000  -10.841  0.99815  7.15845
    13      1     13 -0.15790000  -11.376  0.99994  8.58645
    14      1     14 -0.15840000  -12.902  0.99273  8.59301
    15      1     15 -0.15680000  -13.439  0.99631 10.02133
    16      1     16 -0.16850000  -14.966  0.98730 10.02954
    17      1     17 -0.15040000  -15.508  0.98907 11.46083
    18      1     18 -0.08590000  -17.042  0.97818 11.46087
    19      1     19 -0.89800000  -17.645  0.97850 13.18999
    20      1     20 0.06980000    1.379  0.99870 -1.02663
    21      1     21 0.06980000    1.390  0.11314  0.50980
    22      1     22 0.06980000    1.389  1.88896  0.50667
    23      1     23 0.07730000   -0.881  0.11576 -0.53869
    24      1     24 0.07730000   -0.881  1.88294 -0.53932
    25      1     25 0.07830000   -0.701  1.88213  1.96161
    26      1     26 0.07830000   -0.703  0.11648  1.96083
    27      1     27 0.07820000   -2.968  0.11808  0.89249
    28      1     28 0.07820000   -2.966  1.88545  0.89110
    29      1     29 0.07820000   -2.766  1.88734  3.38659
    30      1     30 0.07820000   -2.766  0.12127  3.38876
    31      1     31 0.07820000   -5.034  0.11854  2.32880
    32      1     32 0.07820000   -5.034  1.88540  2.32327
    33      1     33 0.07830000   -4.825  1.89258  4.81835
    34      1     34 0.07830000   -4.823  0.12588  4.82357
    35      1     35 0.07800000   -7.091  0.11999  3.76330
    36      1     36 0.07800000   -7.093  1.88696  3.75816
    37      1     37 0.07810000   -6.885  1.89246  6.25456
    38      1     38 0.07810000   -6.882  0.12567  6.25778
    39      1     39 0.07730000   -9.148  0.11944  5.19288
    40      1     40 0.07730000   -9.152  1.88583  5.19226
    41      1     41 0.07750000   -8.948  1.88988  7.68553
    42      1     42 0.07750000   -8.941  0.12268  7.68893
    43      1     43 0.07620000  -11.207  0.11168  6.62635
    44      1     44 0.07620000  -11.214  1.87889  6.62197
    45      1     45 0.07650000  -11.007  1.88643  9.11657
    46      1     46 0.07650000  -11.000  0.11951  9.12161
    47      1     47 0.07320000  -13.268  0.10550  8.06175
    48      1     48 0.07320000  -13.276  1.87184  8.05417
    49      1     49 0.07450000  -13.071  1.88458 10.54944
    50      1     50 0.07450000  -13.061  0.11754 10.55780
    51      1     51 0.06420000  -15.329  0.09960  9.49764
    52      1     52 0.06420000  -15.340  1.86693  9.49149
    53      1     53 0.07850000  -15.129  1.87768 11.98321
    54      1     54 0.07850000  -15.116  0.10971 11.98920
    55      1     55 0.03180000  -17.387  0.09907 10.90279
    56      1     56 0.03180000  -17.399  1.84929 10.89815

Bonds 

     1      1      2      1
     2      2      3      2
     3      3      4      3
     4      4      5      4
     5      5      6      5
     6      6      7      6
     7      7      8      7
     8      8      9      8
     9      9     10      9
    10     10     11     10
    11     11     12     11
    12     12     13     12
    13     13     14     13
    14     14     15     14
    15     15     16     15
    16     16     17     16
    17     17     18     17
    18     18     19     18
    19     19     20      1
    20     20     21      1
    21     21     22      1
    22     22     23      2
    23     23     24      2
    24     24     25      3
    25     25     26      3
    26     26     27      4
    27     27     28      4
    28     28     29      5
    29     29     30      5
    30     30     31      6
    31     31     32      6
    32     32     33      7
    33     33     34      7
    34     34     35      8
    35     35     36      8
    36     36     37      9
    37     37     38      9
    38     38     39     10
    39     39     40     10
    40     40     41     11
    41     41     42     11
    42     42     43     12
    43     43     44     12
    44     44     45     13
    45     45     46     13
    46     46     47     14
    47     47     48     14
    48     48     49     15
    49     49     50     15
    50     50     51     16
    51     51     52     16
    52     52     53     17
    53     53     54     17
    54     54     55     18
    55     55     56     18

Angles 

     1      1      1      2      3
     2      2      2      3      4
     3      3      3      4      5
     4      4      4      5      6
     5      5      5      6      7
     6      6      6      7      8
     7      7      7      8      9
     8      8      8      9     10
     9      9      9     10     11
    10     10     10     11     12
    11     11     11     12     13
    12     12     12     13     14
    13     13     13     14     15
    14     14     14     15     16
    15     15     15     16     17
    16     16     16     17     18
    17     17     17     18     19
    18     18      2      1     20
    19     19      2      1     21
    20     20      2      1     22
    21     21      1      2     23
    22     22      1      2     24
    23     23      2      3     25
    24     24      2      3     26
    25     25      3      4     27
    26     26      3      4     28
    27     27      4      5     29
    28     28      4      5     30
    29     29      5      6     31
    30     30      5      6     32
    31     31      6      7     33
    32     32      6      7     34
    33     33      7      8     35
    34     34      7      8     36
    35     35      8      9     37
    36     36      8      9     38
    37     37      9     10     39
    38     38      9     10     40
    39     39     10     11     41
    40     40     10     11     42
    41     41     11     12     43
    42     42     11     12     44
    43     43     12     13     45
    44     44     12     13     46
    45     45     13     14     47
    46     46     13     14     48
    47     47     14     15     49
    48     48     14     15     50
    49     49     15     16     51
    50     50     15     16     52
    51     51     16     17     53
    52     52     16     17     54
    53     53     17     18     55
    54     54     17     18     56
    55     55     15     14     47
    56     56     16     15     50
    57     57     12     11     42
    58     58     18     17     54
    59     59     27      4     28
    60     60     51     16     52
    61     61     16     15     49
    62     62     45     13     46
    63     63     20      1     21
    64     64      5      4     27
    65     65      7      6     32
    66     66      7      6     31
    67     67      6      5     30
    68     68     49     15     50
    69     69     14     13     45
    70     70      5      4     28
    71     71     41     11     42
    72     72     33      7     34
    73     73      9      8     36
    74     74     39     10     40
    75     75     20      1     22
    76     76     11     10     40
    77     77     29      5     30
    78     78     17     16     52
    79     79     35      8     36
    80     80     43     12     44
    81     81      4      3     25
    82     82      8      7     33
    83     83     14     13     46
    84     84     13     12     43
    85     85      4      3     26
    86     86      8      7     34
    87     87     19     18     55
    88     88     18     17     53
    89     89      6      5     29
    90     90     55     18     56
    91     91     25      3     26
    92     92     31      6     32
    93     93     11     10     39
    94     94     53     17     54
    95     95     47     14     48
    96     96     10      9     38
    97     97      3      2     23
    98     98      9      8     35
    99     99     10      9     37
   100    100     37      9     38
   101    101     15     14     48
   102    102     23      2     24
   103    103     13     12     44
   104    104     19     18     56
   105    105     21      1     22
   106    106      3      2     24
   107    107     17     16     51
   108    108     12     11     41

Dihedrals

     1      1      4      3      2      1 
     2      2      5      4      3      2 
     3      3      6      5      4      3 
     4      4      7      6      5      4 
     5      5      8      7      6      5 
     6      6      9      8      7      6 
     7      7     10      9      8      7 
     8      8     11     10      9      8 
     9      9     12     11     10      9 
    10     10     13     12     11     10 
    11     11     14     13     12     11 
    12     12     15     14     13     12 
    13     13     16     15     14     13 
    14     14     17     16     15     14 
    15     15     18     17     16     15 
    16     16     19     18     17     16 
    17     17     20      1      2      3 
    18     18     52     16     15     50 
    19     19     25      3      4      5 
    20     20     28      4      3      2 
    21     21     42     11     12     13 
    22     22     29      5      4     28 
    23     23     30      5      4     27 
    24     24     54     17     16     15 
    25     25     51     16     17     18 
    26     26     35      8      9     10 
    27     27     38      9      8      7 
    28     28     54     17     18     19 
    29     29     42     11     10     39 
    30     30     41     11     10     40 
    31     31     23      2      1     21 
    32     32     24      2      1     20 
    33     33     45     13     14     15 
    34     34     54     17     16     51 
    35     35     53     17     16     52 
    36     36     53     17     16     15 
    37     37     38      9     10     11 
    38     38     48     14     13     12 
    39     39     26      3      2      1 
    40     40     33      7      6     31 
    41     41     55     18     17     54 
    42     42     23      2      3      4 
    43     43     47     14     13     45 
    44     44     32      6      7      8 
    45     45     27      4      3     25 
    46     46     46     13     12     44 
    47     47     32      6      5     30 
    48     48     40     10      9     38 
    49     49     35      8      7     33 
    50     50     40     10      9     37 
    51     51     40     10      9      8 
    52     52     37      9     10     11 
    53     53     45     13     12     11 
    54     54     24      2      1     22 
    55     55     27      4      3     26 
    56     56     51     16     15     50 
    57     57     52     16     15     49 
    58     58     36      8      9     10 
    59     59     30      5      4      3 
    60     60     34      7      8      9 
    61     61     33      7      6      5 
    62     62     53     17     16     51 
    63     63     51     16     15     49 
    64     64     43     12     11     10 
    65     65     39     10      9      8 
    66     66     42     11     10     40 
    67     67     29      5      4     27 
    68     68     37      9      8     35 
    69     69     52     16     15     14 
    70     70     49     15     16     17 
    71     71     47     14     13     12 
    72     72     26      3      4      5 