LAMMPS data file Created by LigParGen - (Written by Leela S. Dodda)

      57 atoms
      56 bonds
     109 angles
     156 dihedrals
      36 impropers
 
      57 atom types
      56 bond types
     109 angle types
     156 dihedral types
      36 improper types
 
  -17.676520    32.323480 xlo xhi
   -0.192390    49.807610 ylo yhi
   -1.026850    48.973150 zlo zhi

Masses

       1     12.011  
       2     12.011  
       3     12.011  
       4     12.011  
       5     12.011  
       6     12.011  
       7     12.011  
       8     12.011  
       9     12.011  
      10     12.011  
      11     12.011  
      12     12.011  
      13     12.011  
      14     12.011  
      15     12.011  
      16     12.011  
      17     12.011  
      18     12.011  
      19     32.060  
      20      1.008  
      21      1.008  
      22      1.008  
      23      1.008  
      24      1.008  
      25      1.008  
      26      1.008  
      27      1.008  
      28      1.008  
      29      1.008  
      30      1.008  
      31      1.008  
      32      1.008  
      33      1.008  
      34      1.008  
      35      1.008  
      36      1.008  
      37      1.008  
      38      1.008  
      39      1.008  
      40      1.008  
      41      1.008  
      42      1.008  
      43      1.008  
      44      1.008  
      45      1.008  
      46      1.008  
      47      1.008  
      48      1.008  
      49      1.008  
      50      1.008  
      51      1.008  
      52      1.008  
      53      1.008  
      54      1.008  
      55      1.008  
      56      1.008  
      57      1.008  

Pair Coeffs 

       1      0.066  3.5000000 
       2      0.066  3.5000000 
       3      0.066  3.5000000 
       4      0.066  3.5000000 
       5      0.066  3.5000000 
       6      0.066  3.5000000 
       7      0.066  3.5000000 
       8      0.066  3.5000000 
       9      0.066  3.5000000 
      10      0.066  3.5000000 
      11      0.066  3.5000000 
      12      0.066  3.5000000 
      13      0.066  3.5000000 
      14      0.066  3.5000000 
      15      0.066  3.5000000 
      16      0.066  3.5000000 
      17      0.066  3.5000000 
      18      0.066  3.5000000 
      19      0.425  3.6000000 
      20      0.030  2.5000000 
      21      0.030  2.5000000 
      22      0.030  2.5000000 
      23      0.030  2.5000000 
      24      0.030  2.5000000 
      25      0.030  2.5000000 
      26      0.030  2.5000000 
      27      0.030  2.5000000 
      28      0.030  2.5000000 
      29      0.030  2.5000000 
      30      0.030  2.5000000 
      31      0.030  2.5000000 
      32      0.030  2.5000000 
      33      0.030  2.5000000 
      34      0.030  2.5000000 
      35      0.030  2.5000000 
      36      0.030  2.5000000 
      37      0.030  2.5000000 
      38      0.030  2.5000000 
      39      0.030  2.5000000 
      40      0.030  2.5000000 
      41      0.030  2.5000000 
      42      0.030  2.5000000 
      43      0.030  2.5000000 
      44      0.030  2.5000000 
      45      0.030  2.5000000 
      46      0.030  2.5000000 
      47      0.030  2.5000000 
      48      0.030  2.5000000 
      49      0.030  2.5000000 
      50      0.030  2.5000000 
      51      0.030  2.5000000 
      52      0.030  2.5000000 
      53      0.030  2.5000000 
      54      0.030  2.5000000 
      55      0.030  2.5000000 
      56      0.030  2.5000000 
      57      0.000  0.0000000 

Bond Coeffs 

       1   268.0000     1.5290 
       2   268.0000     1.5290 
       3   268.0000     1.5290 
       4   268.0000     1.5290 
       5   268.0000     1.5290 
       6   268.0000     1.5290 
       7   268.0000     1.5290 
       8   268.0000     1.5290 
       9   268.0000     1.5290 
      10   268.0000     1.5290 
      11   268.0000     1.5290 
      12   268.0000     1.5290 
      13   268.0000     1.5290 
      14   268.0000     1.5290 
      15   268.0000     1.5290 
      16   268.0000     1.5290 
      17   268.0000     1.5290 
      18   222.0000     1.8100 
      19   340.0000     1.0900 
      20   340.0000     1.0900 
      21   340.0000     1.0900 
      22   340.0000     1.0900 
      23   340.0000     1.0900 
      24   340.0000     1.0900 
      25   340.0000     1.0900 
      26   340.0000     1.0900 
      27   340.0000     1.0900 
      28   340.0000     1.0900 
      29   340.0000     1.0900 
      30   340.0000     1.0900 
      31   340.0000     1.0900 
      32   340.0000     1.0900 
      33   340.0000     1.0900 
      34   340.0000     1.0900 
      35   340.0000     1.0900 
      36   340.0000     1.0900 
      37   340.0000     1.0900 
      38   340.0000     1.0900 
      39   340.0000     1.0900 
      40   340.0000     1.0900 
      41   340.0000     1.0900 
      42   340.0000     1.0900 
      43   340.0000     1.0900 
      44   340.0000     1.0900 
      45   340.0000     1.0900 
      46   340.0000     1.0900 
      47   340.0000     1.0900 
      48   340.0000     1.0900 
      49   340.0000     1.0900 
      50   340.0000     1.0900 
      51   340.0000     1.0900 
      52   340.0000     1.0900 
      53   340.0000     1.0900 
      54   340.0000     1.0900 
      55   340.0000     1.0900 
      56   274.0000     1.3360 

Angle Coeffs 

       1     58.350    112.700
       2     58.350    112.700
       3     58.350    112.700
       4     58.350    112.700
       5     58.350    112.700
       6     58.350    112.700
       7     58.350    112.700
       8     58.350    112.700
       9     58.350    112.700
      10     58.350    112.700
      11     58.350    112.700
      12     58.350    112.700
      13     58.350    112.700
      14     58.350    112.700
      15     58.350    112.700
      16     58.350    112.700
      17     50.000    108.600
      18     37.500    110.700
      19     37.500    110.700
      20     37.500    110.700
      21     37.500    110.700
      22     37.500    110.700
      23     37.500    110.700
      24     37.500    110.700
      25     37.500    110.700
      26     37.500    110.700
      27     37.500    110.700
      28     37.500    110.700
      29     37.500    110.700
      30     37.500    110.700
      31     37.500    110.700
      32     37.500    110.700
      33     37.500    110.700
      34     37.500    110.700
      35     37.500    110.700
      36     37.500    110.700
      37     37.500    110.700
      38     37.500    110.700
      39     37.500    110.700
      40     37.500    110.700
      41     37.500    110.700
      42     37.500    110.700
      43     37.500    110.700
      44     37.500    110.700
      45     37.500    110.700
      46     37.500    110.700
      47     37.500    110.700
      48     37.500    110.700
      49     37.500    110.700
      50     37.500    110.700
      51     37.500    110.700
      52     37.500    110.700
      53     37.500    110.700
      54     37.500    110.700
      55     44.000     96.000
      56     37.500    110.700
      57     37.500    110.700
      58     37.500    110.700
      59     37.500    110.700
      60     33.000    107.800
      61     33.000    107.800
      62     37.500    110.700
      63     33.000    107.800
      64     33.000    107.800
      65     37.500    110.700
      66     37.500    110.700
      67     37.500    110.700
      68     37.500    110.700
      69     33.000    107.800
      70     37.500    110.700
      71     37.500    110.700
      72     33.000    107.800
      73     33.000    107.800
      74     37.500    110.700
      75     33.000    107.800
      76     33.000    107.800
      77     37.500    110.700
      78     33.000    107.800
      79     37.500    110.700
      80     33.000    107.800
      81     33.000    107.800
      82     37.500    110.700
      83     37.500    110.700
      84     37.500    110.700
      85     37.500    110.700
      86     37.500    110.700
      87     37.500    110.700
      88     35.000    109.500
      89     37.500    110.700
      90     37.500    110.700
      91     33.000    107.800
      92     33.000    107.800
      93     33.000    107.800
      94     37.500    110.700
      95     33.000    107.800
      96     33.000    107.800
      97     37.500    110.700
      98     37.500    110.700
      99     37.500    110.700
     100     37.500    110.700
     101     33.000    107.800
     102     37.500    110.700
     103     33.000    107.800
     104     37.500    110.700
     105     35.000    109.500
     106     33.000    107.800
     107     37.500    110.700
     108     37.500    110.700
     109     37.500    110.700

Dihedral Coeffs  

       1      1.300     -0.200      0.200      0.000 
       2      1.300     -0.200      0.200      0.000 
       3      1.300     -0.200      0.200      0.000 
       4      1.300     -0.200      0.200      0.000 
       5      1.300     -0.200      0.200      0.000 
       6      1.300     -0.200      0.200      0.000 
       7      1.300     -0.200      0.200      0.000 
       8      1.300     -0.200      0.200      0.000 
       9      1.300     -0.200      0.200      0.000 
      10      1.300     -0.200      0.200      0.000 
      11      1.300     -0.200      0.200      0.000 
      12      1.300     -0.200      0.200      0.000 
      13      1.300     -0.200      0.200      0.000 
      14      1.300     -0.200      0.200      0.000 
      15      1.300     -0.200      0.200      0.000 
      16      1.262     -0.198      0.465      0.000 
      17      0.000      0.000      0.300      0.000 
      18     -0.759     -0.282      0.680      0.000 
      19      0.000      0.000      0.300      0.000 
      20      0.000      0.000      0.300      0.000 
      21      0.000      0.000      0.300      0.000 
      22      0.000      0.000      0.300      0.000 
      23      0.000      0.000      0.300      0.000 
      24      0.000      0.000      0.300      0.000 
      25      0.000      0.000      0.300      0.000 
      26      0.000      0.000      0.300      0.000 
      27      0.000      0.000      0.300      0.000 
      28      0.000      0.000      0.300      0.000 
      29      0.000      0.000      0.452      0.000 
      30      0.000      0.000      0.300      0.000 
      31      0.000      0.000      0.300      0.000 
      32      0.000      0.000      0.300      0.000 
      33      0.000      0.000      0.300      0.000 
      34      0.000      0.000      0.300      0.000 
      35      0.000      0.000      0.300      0.000 
      36      0.000      0.000      0.300      0.000 
      37      0.000      0.000      0.300      0.000 
      38      0.000      0.000      0.300      0.000 
      39      0.000      0.000      0.300      0.000 
      40      0.000      0.000      0.300      0.000 
      41      0.000      0.000      0.300      0.000 
      42      0.000      0.000      0.300      0.000 
      43      0.000      0.000      0.300      0.000 
      44      0.000      0.000      0.300      0.000 
      45      0.000      0.000      0.300      0.000 
      46      0.000      0.000      0.300      0.000 
      47      0.000      0.000      0.300      0.000 
      48      0.000      0.000      0.300      0.000 
      49      0.000      0.000      0.300      0.000 
      50      0.000      0.000      0.300      0.000 
      51      0.000      0.000      0.300      0.000 
      52      0.000      0.000      0.300      0.000 
      53      0.000      0.000      0.300      0.000 
      54      0.000      0.000      0.300      0.000 
      55      0.000      0.000      0.300      0.000 
      56      0.000      0.000      0.300      0.000 
      57      0.000      0.000      0.300      0.000 
      58      0.000      0.000      0.300      0.000 
      59      0.000      0.000      0.300      0.000 
      60      0.000      0.000      0.300      0.000 
      61      0.000      0.000      0.300      0.000 
      62      0.000      0.000      0.300      0.000 
      63      0.000      0.000      0.300      0.000 
      64      0.000      0.000      0.300      0.000 
      65      0.000      0.000      0.300      0.000 
      66      0.000      0.000      0.300      0.000 
      67      0.000      0.000      0.300      0.000 
      68      0.000      0.000      0.300      0.000 
      69      0.000      0.000      0.300      0.000 
      70      0.000      0.000      0.300      0.000 
      71      0.000      0.000      0.300      0.000 
      72      0.000      0.000      0.300      0.000 
      73      0.000      0.000      0.300      0.000 
      74      0.000      0.000      0.300      0.000 
      75      0.000      0.000      0.300      0.000 
      76      0.000      0.000      0.300      0.000 
      77      0.000      0.000      0.300      0.000 
      78      0.000      0.000      0.300      0.000 
      79      0.000      0.000      0.300      0.000 
      80      0.000      0.000      0.300      0.000 
      81      0.000      0.000      0.300      0.000 
      82      0.000      0.000      0.300      0.000 
      83      0.000      0.000      0.300      0.000 
      84      0.000      0.000      0.300      0.000 
      85      0.000      0.000      0.300      0.000 
      86      0.000      0.000      0.480      0.000 
      87      0.000      0.000      0.300      0.000 
      88      0.000      0.000      0.300      0.000 
      89      0.000      0.000      0.300      0.000 
      90      0.000      0.000      0.300      0.000 
      91      0.000      0.000      0.300      0.000 
      92      0.000      0.000      0.300      0.000 
      93      0.000      0.000      0.300      0.000 
      94      0.000      0.000      0.300      0.000 
      95      0.000      0.000      0.300      0.000 
      96      0.000      0.000      0.300      0.000 
      97      0.000      0.000      0.300      0.000 
      98      0.000      0.000      0.300      0.000 
      99      0.000      0.000      0.300      0.000 
     100      0.000      0.000      0.300      0.000 
     101      0.000      0.000      0.300      0.000 
     102      0.000      0.000      0.300      0.000 
     103      0.000      0.000      0.300      0.000 
     104      0.000      0.000      0.300      0.000 
     105      0.000      0.000      0.300      0.000 
     106      0.000      0.000      0.300      0.000 
     107      0.000      0.000      0.300      0.000 
     108      0.000      0.000      0.300      0.000 
     109      0.000      0.000      0.300      0.000 
     110      0.000      0.000      0.300      0.000 
     111      0.000      0.000      0.300      0.000 
     112      0.000      0.000      0.300      0.000 
     113      0.000      0.000      0.300      0.000 
     114      0.000      0.000      0.300      0.000 
     115      0.000      0.000      0.300      0.000 
     116      0.000      0.000      0.300      0.000 
     117      0.000      0.000      0.300      0.000 
     118      0.000      0.000      0.300      0.000 
     119      0.000      0.000      0.300      0.000 
     120      0.000      0.000      0.300      0.000 
     121      0.000      0.000      0.300      0.000 
     122      0.000      0.000      0.300      0.000 
     123      0.000      0.000      0.300      0.000 
     124      0.000      0.000      0.300      0.000 
     125      0.000      0.000      0.300      0.000 
     126      0.000      0.000      0.300      0.000 
     127      0.000      0.000      0.300      0.000 
     128      0.000      0.000      0.300      0.000 
     129      0.000      0.000      0.300      0.000 
     130      0.000      0.000      0.300      0.000 
     131      0.000      0.000      0.300      0.000 
     132      0.000      0.000      0.300      0.000 
     133      0.000      0.000      0.300      0.000 
     134      0.000      0.000      0.300      0.000 
     135      0.000      0.000      0.300      0.000 
     136      0.000      0.000      0.300      0.000 
     137      0.000      0.000      0.300      0.000 
     138      0.000      0.000      0.300      0.000 
     139      0.000      0.000      0.300      0.000 
     140      0.000      0.000      0.300      0.000 
     141      0.000      0.000      0.300      0.000 
     142      0.000      0.000      0.300      0.000 
     143      0.000      0.000      0.300      0.000 
     144      0.000      0.000      0.300      0.000 
     145      0.000      0.000      0.300      0.000 
     146      0.000      0.000      0.300      0.000 
     147      0.000      0.000      0.480      0.000 
     148      0.000      0.000      0.300      0.000 
     149      0.000      0.000      0.300      0.000 
     150      0.000      0.000      0.300      0.000 
     151      0.000      0.000      0.300      0.000 
     152      0.000      0.000      0.300      0.000 
     153      0.000      0.000      0.300      0.000 
     154      0.000      0.000      0.300      0.000 
     155      0.000      0.000      0.300      0.000 
     156      0.000      0.000      0.452      0.000 

Improper Coeffs 

       1      0.000      -1       2 
       2      0.000      -1       2 
       3      0.000      -1       2 
       4      0.000      -1       2 
       5      0.000      -1       2 
       6      0.000      -1       2 
       7      0.000      -1       2 
       8      0.000      -1       2 
       9      0.000      -1       2 
      10      0.000      -1       2 
      11      0.000      -1       2 
      12      0.000      -1       2 
      13      0.000      -1       2 
      14      0.000      -1       2 
      15      0.000      -1       2 
      16      0.000      -1       2 
      17      0.000      -1       2 
      18      0.000      -1       2 
      19      0.000      -1       2 
      20      0.000      -1       2 
      21      0.000      -1       2 
      22      0.000      -1       2 
      23      0.000      -1       2 
      24      0.000      -1       2 
      25      0.000      -1       2 
      26      0.000      -1       2 
      27      0.000      -1       2 
      28      0.000      -1       2 
      29      0.000      -1       2 
      30      0.000      -1       2 
      31      0.000      -1       2 
      32      0.000      -1       2 
      33      0.000      -1       2 
      34      0.000      -1       2 
      35      0.000      -1       2 
      36      0.000      -1       2 

Atoms 

     1      1      1 -0.23890000    1.000  1.00000  0.00000
     2      1      2 -0.17970000   -0.520  1.00000  0.00000
     3      1      3 -0.17890000   -1.071  1.00000  1.42337
     4      1      4 -0.17910000   -2.599  0.99820  1.42174
     5      1      5 -0.17970000   -3.142  0.99641  2.84961
     6      1      6 -0.17950000   -4.667  0.99640  2.85287
     7      1      7 -0.17950000   -5.206  0.99281  4.27919
     8      1      8 -0.17950000   -6.731  0.99461  4.28245
     9      1      9 -0.17970000   -7.268  0.99282  5.70974
    10      1     10 -0.17960000   -8.793  0.99281  5.71301
    11      1     11 -0.17950000   -9.330  0.98922  7.13983
    12      1     12 -0.17950000  -10.855  0.98741  7.14309
    13      1     13 -0.17950000  -11.393  0.98201  8.57063
    14      1     14 -0.17920000  -12.918  0.98200  8.57553
    15      1     15 -0.17880000  -13.456  0.97840 10.00369
    16      1     16 -0.18030000  -14.983  0.98019 10.01350
    17      1     17 -0.18430000  -15.521  0.97477 11.44445
    18      1     18 0.01230000  -17.046  0.97478 11.44772
    19      1     19 -0.44130000  -17.677  0.96619 13.14968
    20      1     20 0.08080000    1.378  0.99870 -1.02685
    21      1     21 0.08080000    1.390  0.11232  0.50755
    22      1     22 0.08080000    1.390  1.88844  0.50637
    23      1     23 0.08830000   -0.880  0.11674 -0.53952
    24      1     24 0.08830000   -0.880  1.88330 -0.53954
    25      1     25 0.08950000   -0.704  1.88342  1.96026
    26      1     26 0.08950000   -0.702  0.11704  1.96086
    27      1     27 0.08970000   -2.966  0.11509  0.88687
    28      1     28 0.08970000   -2.968  1.88248  0.88899
    29      1     29 0.08960000   -2.773  1.87900  3.38677
    30      1     30 0.08960000   -2.772  0.11213  3.38359
    31      1     31 0.08970000   -5.038  0.11351  2.31557
    32      1     32 0.08970000   -5.037  1.88058  2.31947
    33      1     33 0.08980000   -4.834  1.87428  4.81604
    34      1     34 0.08980000   -4.837  0.10762  4.81176
    35      1     35 0.08980000   -7.102  0.11265  3.74645
    36      1     36 0.08980000   -7.100  1.87926  3.74946
    37      1     37 0.08990000   -6.897  1.87578  6.24477
    38      1     38 0.08990000   -6.898  0.10905  6.24338
    39      1     39 0.08990000   -9.162  0.11056  5.17609
    40      1     40 0.08990000   -9.163  1.87768  5.18060
    41      1     41 0.09010000   -8.960  1.87199  7.67547
    42      1     42 0.09010000   -8.958  0.10518  7.67176
    43      1     43 0.09010000  -11.224  0.10558  6.60571
    44      1     44 0.09010000  -11.226  1.87234  6.61137
    45      1     45 0.09040000  -11.021  1.86263  9.10804
    46      1     46 0.09040000  -11.021  0.09608  9.10022
    47      1     47 0.09040000  -13.288  0.10035  8.03796
    48      1     48 0.09040000  -13.288  1.86725  8.04329
    49      1     49 0.09150000  -13.082  1.85950 10.53951
    50      1     50 0.09150000  -13.084  0.09295 10.53330
    51      1     51 0.09160000  -15.354  0.09939  9.47531
    52      1     52 0.09160000  -15.352  1.86635  9.48280
    53      1     53 0.10180000  -15.141  1.85703 11.97469
    54      1     54 0.10180000  -15.142  0.08748 11.96671
    55      1     55 0.12610000  -17.432  0.09123 10.92935
    56      1     56 0.12610000  -17.431  1.86448 10.93911
    57      1     57 0.14540000  -17.110 -0.19239 13.51730

Bonds 

     1      1      2      1
     2      2      3      2
     3      3      4      3
     4      4      5      4
     5      5      6      5
     6      6      7      6
     7      7      8      7
     8      8      9      8
     9      9     10      9
    10     10     11     10
    11     11     12     11
    12     12     13     12
    13     13     14     13
    14     14     15     14
    15     15     16     15
    16     16     17     16
    17     17     18     17
    18     18     19     18
    19     19     20      1
    20     20     21      1
    21     21     22      1
    22     22     23      2
    23     23     24      2
    24     24     25      3
    25     25     26      3
    26     26     27      4
    27     27     28      4
    28     28     29      5
    29     29     30      5
    30     30     31      6
    31     31     32      6
    32     32     33      7
    33     33     34      7
    34     34     35      8
    35     35     36      8
    36     36     37      9
    37     37     38      9
    38     38     39     10
    39     39     40     10
    40     40     41     11
    41     41     42     11
    42     42     43     12
    43     43     44     12
    44     44     45     13
    45     45     46     13
    46     46     47     14
    47     47     48     14
    48     48     49     15
    49     49     50     15
    50     50     51     16
    51     51     52     16
    52     52     53     17
    53     53     54     17
    54     54     55     18
    55     55     56     18
    56     56     57     19

Angles 

     1      1      1      2      3
     2      2      2      3      4
     3      3      3      4      5
     4      4      4      5      6
     5      5      5      6      7
     6      6      6      7      8
     7      7      7      8      9
     8      8      8      9     10
     9      9      9     10     11
    10     10     10     11     12
    11     11     11     12     13
    12     12     12     13     14
    13     13     13     14     15
    14     14     14     15     16
    15     15     15     16     17
    16     16     16     17     18
    17     17     17     18     19
    18     18      2      1     20
    19     19      2      1     21
    20     20      2      1     22
    21     21      1      2     23
    22     22      1      2     24
    23     23      2      3     25
    24     24      2      3     26
    25     25      3      4     27
    26     26      3      4     28
    27     27      4      5     29
    28     28      4      5     30
    29     29      5      6     31
    30     30      5      6     32
    31     31      6      7     33
    32     32      6      7     34
    33     33      7      8     35
    34     34      7      8     36
    35     35      8      9     37
    36     36      8      9     38
    37     37      9     10     39
    38     38      9     10     40
    39     39     10     11     41
    40     40     10     11     42
    41     41     11     12     43
    42     42     11     12     44
    43     43     12     13     45
    44     44     12     13     46
    45     45     13     14     47
    46     46     13     14     48
    47     47     14     15     49
    48     48     14     15     50
    49     49     15     16     51
    50     50     15     16     52
    51     51     16     17     53
    52     52     16     17     54
    53     53     17     18     55
    54     54     17     18     56
    55     55     18     19     57
    56     56     15     14     47
    57     57     16     15     50
    58     58     12     11     42
    59     59     18     17     54
    60     60     27      4     28
    61     61     51     16     52
    62     62     16     15     49
    63     63     45     13     46
    64     64     20      1     21
    65     65      5      4     27
    66     66      7      6     32
    67     67      7      6     31
    68     68      6      5     30
    69     69     49     15     50
    70     70     14     13     45
    71     71      5      4     28
    72     72     41     11     42
    73     73     33      7     34
    74     74      9      8     36
    75     75     39     10     40
    76     76     20      1     22
    77     77     11     10     40
    78     78     29      5     30
    79     79     17     16     52
    80     80     35      8     36
    81     81     43     12     44
    82     82      4      3     25
    83     83      8      7     33
    84     84     14     13     46
    85     85     13     12     43
    86     86      4      3     26
    87     87      8      7     34
    88     88     19     18     55
    89     89     18     17     53
    90     90      6      5     29
    91     91     55     18     56
    92     92     25      3     26
    93     93     31      6     32
    94     94     11     10     39
    95     95     53     17     54
    96     96     47     14     48
    97     97     10      9     38
    98     98      3      2     23
    99     99      9      8     35
   100    100     10      9     37
   101    101     37      9     38
   102    102     15     14     48
   103    103     23      2     24
   104    104     13     12     44
   105    105     19     18     56
   106    106     21      1     22
   107    107      3      2     24
   108    108     17     16     51
   109    109     12     11     41

Dihedrals

     1      1      4      3      2      1 
     2      2      5      4      3      2 
     3      3      6      5      4      3 
     4      4      7      6      5      4 
     5      5      8      7      6      5 
     6      6      9      8      7      6 
     7      7     10      9      8      7 
     8      8     11     10      9      8 
     9      9     12     11     10      9 
    10     10     13     12     11     10 
    11     11     14     13     12     11 
    12     12     15     14     13     12 
    13     13     16     15     14     13 
    14     14     17     16     15     14 
    15     15     18     17     16     15 
    16     16     19     18     17     16 
    17     17     20      1      2      3 
    18     18     57     19     18     17 
    19     19     52     16     15     50 
    20     20     25      3      4      5 
    21     21     28      4      3      2 
    22     22     42     11     12     13 
    23     23     29      5      4     28 
    24     24     30      5      4     27 
    25     25     54     17     16     15 
    26     26     51     16     17     18 
    27     27     35      8      9     10 
    28     28     38      9      8      7 
    29     29     54     17     18     19 
    30     30     42     11     10     39 
    31     31     41     11     10     40 
    32     32     23      2      1     21 
    33     33     24      2      1     20 
    34     34     45     13     14     15 
    35     35     54     17     16     51 
    36     36     53     17     16     52 
    37     37     53     17     16     15 
    38     38     38      9     10     11 
    39     39     48     14     13     12 
    40     40     26      3      2      1 
    41     41     33      7      6     31 
    42     42     55     18     17     54 
    43     43     23      2      3      4 
    44     44     47     14     13     45 
    45     45     32      6      7      8 
    46     46     27      4      3     25 
    47     47     46     13     12     44 
    48     48     32      6      5     30 
    49     49     40     10      9     38 
    50     50     35      8      7     33 
    51     51     40     10      9     37 
    52     52     40     10      9      8 
    53     53     37      9     10     11 
    54     54     45     13     12     11 
    55     55     24      2      1     22 
    56     56     27      4      3     26 
    57     57     51     16     15     50 
    58     58     52     16     15     49 
    59     59     36      8      9     10 
    60     60     30      5      4      3 
    61     61     34      7      8      9 
    62     62     33      7      6      5 
    63     63     53     17     16     51 