#C14_acid

44 atoms
6 atom types

43 bonds
6 bond types

82 angles
9 angle types

116 dihedrals
8 dihedral types

27 impropers
2 improper types

-13.66407  36.33593  xlo xhi
0  50.10789  ylo yhi
-1.02654  48.97346  zlo zhi

Masses

1  12.011
2  12.011
3  15.999
4  15.999
5  1.008
6  1.008

Pair Coeffs

1  0.066  3.5
2  0.07  3.55
3  0.21  2.96
4  0.17  3.12
5  0.03  2.5
6  0.0  0.0

Bond Coeffs

1  268.0  1.529
2  317.0  1.522
3  570.0  1.229
4  450.0  1.364
5  340.0  1.09
6  553.0  0.945

Angle Coeffs

1  58.35  112.7
2  63.0  111.1
3  80.0  120.4
4  70.0  108.0
5  37.5  110.7
6  35.0  113.0
7  33.0  107.8
8  80.0  121.0
9  35.0  109.5

Dihedral Coeffs

1  1.3  -0.2  0.2  0.0
2  -2.06  -0.313  0.315  0.0
3  0.0  0.0  0.0  0.0
4  0.0  0.0  0.3  0.0
5  1.5  5.5  0.0  0.0
6  0.0  5.5  0.0  0.0
7  1.0  0.546  0.45  0.0
8  0.0  0.0  -0.1  0.0

Improper Coeffs

1  10.5  -1.0  2.0
2  0.0  -1.0  2.0

Atoms # full

1  1  1  -0.2389   1   1   0
2  1  1  -0.1792  -0.52   1   0
3  1  1  -0.1786  -1.071   1   1.42399
4  1  1  -0.1792  -2.599   0.9982   1.42727
5  1  1  -0.1792  -3.141   1.00002   2.85586
6  1  1  -0.1791  -4.668   1.00004   2.86732
7  1  1  -0.179  -5.203   1.00366   4.29812
8  1  1  -0.1793  -6.729   1.00188   4.31284
9  1  1  -0.1786  -7.267   1.0037   5.74269
10  1  1  -0.1785  -8.794   1.0001   5.74761
11  1  1  -0.1797  -9.349   1.00366   7.17133
12  1  1  -0.1705  -10.877   0.99818   7.15334
13  1  1  -0.2608  -11.456   0.99982   8.56555
14  1  2   0.5099  -12.968   0.99616   8.54774
15  1  3  -0.4444  -13.664   0.99236   7.5462
16  1  4  -0.56  -13.493   0.99916   9.79476
17  1  5   0.0808   1.379   1.0013  -1.02654
18  1  5   0.0808   1.391   0.11163   0.50633
19  1  5   0.0808   1.391   1.88703   0.50854
20  1  5   0.0886  -0.881   0.11675  -0.53951
21  1  5   0.0886  -0.88   1.88368  -0.53977
22  1  5   0.0893  -0.705   1.88384   1.96037
23  1  5   0.0893  -0.703   0.11751   1.96119
24  1  5   0.0897  -2.968   0.11343   0.89422
25  1  5   0.0897  -2.97   1.88029   0.89116
26  1  5   0.0893  -2.769   1.88384   3.38875
27  1  5   0.0893  -2.769   0.11752   3.39102
28  1  5   0.0902  -5.04   0.11591   2.33595
29  1  5   0.0902  -5.039   1.88248   2.33225
30  1  5   0.0893  -4.83   1.88878   4.82786
31  1  5   0.0893  -4.828   0.1225   4.83319
32  1  5   0.0909  -7.1   0.11682   3.78097
33  1  5   0.0909  -7.102   1.88348   3.77698
34  1  5   0.0893  -6.898   1.88945   6.2736
35  1  5   0.0893  -6.893   0.12202   6.27741
36  1  5   0.0938  -9.159   0.11419   5.21375
37  1  5   0.0938  -9.164   1.88052   5.20775
38  1  5   0.0882  -8.988   1.89028   7.70592
39  1  5   0.0882  -8.981   0.12374   7.71282
40  1  5   0.111  -11.234   0.11489   6.60922
41  1  5   0.111  -11.241   1.87681   6.60556
42  1  5   0.121  -11.121   1.89459   9.10107
43  1  5   0.121  -11.117   0.10789   9.10479
44  1  6   0.4514  -12.821   1.00317   10.50267

Bonds

1  1  2  1
2  1  3  2
3  1  4  3
4  1  5  4
5  1  6  5
6  1  7  6
7  1  8  7
8  1  9  8
9  1  10  9
10  1  11  10
11  1  12  11
12  1  13  12
13  2  14  13
14  3  15  14
15  4  16  14
16  5  17  1
17  5  18  1
18  5  19  1
19  5  20  2
20  5  21  2
21  5  22  3
22  5  23  3
23  5  24  4
24  5  25  4
25  5  26  5
26  5  27  5
27  5  28  6
28  5  29  6
29  5  30  7
30  5  31  7
31  5  32  8
32  5  33  8
33  5  34  9
34  5  35  9
35  5  36  10
36  5  37  10
37  5  38  11
38  5  39  11
39  5  40  12
40  5  41  12
41  5  42  13
42  5  43  13
43  6  44  16

Angles

1  1  1  2  3
2  1  2  3  4
3  1  3  4  5
4  1  4  5  6
5  1  5  6  7
6  1  6  7  8
7  1  7  8  9
8  1  8  9  10
9  1  9  10  11
10  1  10  11  12
11  1  11  12  13
12  2  12  13  14
13  3  13  14  15
14  4  13  14  16
15  5  2  1  17
16  5  2  1  18
17  5  2  1  19
18  5  1  2  20
19  5  1  2  21
20  5  2  3  22
21  5  2  3  23
22  5  3  4  24
23  5  3  4  25
24  5  4  5  26
25  5  4  5  27
26  5  5  6  28
27  5  5  6  29
28  5  6  7  30
29  5  6  7  31
30  5  7  8  32
31  5  7  8  33
32  5  8  9  34
33  5  8  9  35
34  5  9  10  36
35  5  9  10  37
36  5  10  11  38
37  5  10  11  39
38  5  11  12  40
39  5  11  12  41
40  5  12  13  42
41  5  12  13  43
42  6  14  16  44
43  5  9  8  32
44  5  13  12  40
45  7  17  1  19
46  5  3  2  20
47  7  34  9  35
48  8  15  14  16
49  5  9  8  33
50  5  3  2  21
51  7  28  6  29
52  5  5  4  24
53  9  14  13  43
54  7  36  10  37
55  7  24  4  25
56  5  4  3  22
57  5  7  6  28
58  5  10  9  34
59  7  22  3  23
60  5  4  3  23
61  5  11  10  36
62  5  6  5  27
63  9  14  13  42
64  7  18  1  19
65  7  26  5  27
66  7  32  8  33
67  5  12  11  39
68  5  7  6  29
69  5  5  4  25
70  5  8  7  31
71  5  11  10  37
72  7  40  12  41
73  5  6  5  26
74  7  20  2  21
75  7  17  1  18
76  7  42  13  43
77  7  38  11  39
78  5  12  11  38
79  7  30  7  31
80  5  13  12  41
81  5  8  7  30
82  5  10  9  35

Dihedrals

1  1  4  3  2  1
2  1  5  4  3  2
3  1  6  5  4  3
4  1  7  6  5  4
5  1  8  7  6  5
6  1  9  8  7  6
7  1  10  9  8  7
8  1  11  10  9  8
9  1  12  11  10  9
10  1  13  12  11  10
11  2  14  13  12  11
12  3  15  14  13  12
13  4  17  1  2  3
14  5  44  16  14  13
15  4  31  7  6  5
16  4  31  7  8  9
17  4  28  6  7  8
18  4  35  9  10  11
19  4  25  4  3  22
20  4  43  13  12  41
21  6  44  16  14  15
22  4  38  11  10  9
23  4  21  2  1  17
24  4  20  2  1  18
25  4  24  4  3  23
26  4  19  1  2  3
27  4  38  11  10  36
28  4  23  3  2  20
29  4  22  3  2  21
30  4  33  8  7  6
31  4  28  6  5  4
32  4  30  7  6  5
33  4  25  4  5  6
34  4  23  3  4  5
35  4  39  11  10  36
36  4  38  11  10  37
37  4  34  9  8  32
38  4  32  8  7  30
39  4  41  12  11  39
40  4  32  8  7  31
41  4  33  8  7  30
42  4  29  6  5  27
43  4  26  5  4  24
44  4  30  7  6  29
45  4  31  7  6  28
46  4  34  9  10  11
47  4  34  9  8  33
48  4  35  9  8  32
49  4  21  2  1  18
50  4  40  12  11  10
51  4  20  2  1  19
52  4  43  13  12  11
53  4  37  10  9  35
54  3  43  13  14  16
55  4  24  4  3  22
56  4  27  5  4  25
57  4  35  9  8  33
58  4  32  8  9  10
59  4  26  5  4  3
60  4  41  12  11  38
61  4  38  11  12  13
62  4  41  12  11  10
63  4  39  11  10  9
64  4  27  5  6  7
65  4  36  10  11  12
66  4  37  10  9  8
67  4  30  7  8  9
68  4  37  10  9  34
69  4  36  10  9  35
70  4  32  8  7  6
71  4  42  13  12  11
72  3  42  13  14  16
73  7  16  14  13  12
74  4  35  9  8  7
75  4  33  8  7  31
76  4  39  11  12  13
77  4  22  3  2  20
78  4  42  13  12  41
79  4  29  6  7  8
80  4  34  9  8  7
81  4  24  4  3  2
82  4  36  10  9  8
83  4  24  4  5  6
84  4  20  2  1  17
85  4  25  4  3  23
86  4  43  13  12  40
87  4  36  10  9  34
88  4  23  3  2  1
89  4  20  2  3  4
90  4  31  7  6  29
91  4  40  12  11  39
92  8  40  12  13  14
93  4  23  3  2  21
94  4  21  2  3  4
95  4  28  6  5  26
96  4  26  5  6  7
97  4  29  6  5  4
98  4  22  3  2  1
99  4  39  11  10  37
100  4  27  5  4  3
101  4  18  1  2  3
102  4  37  10  11  12
103  4  21  2  1  19
104  4  29  6  5  26
105  4  28  6  5  27
106  3  42  13  14  15
107  4  25  4  3  2
108  4  22  3  4  5
109  8  41  12  13  14
110  4  40  12  11  38
111  4  33  8  9  10
112  4  26  5  4  25
113  4  27  5  4  24
114  3  43  13  14  15
115  4  42  13  12  40
116  4  30  7  6  28

Impropers

1  1  14  13  15  16
2  2  1  18  17  2
3  2  1  2  19  17
4  2  2  1  3  20
5  2  2  1  3  21
6  2  3  2  4  22
7  2  3  2  4  23
8  2  4  3  5  24
9  2  4  25  3  5
10  2  5  26  4  6
11  2  5  27  4  6
12  2  6  28  5  7
13  2  6  5  29  7
14  2  7  8  30  6
15  2  7  8  31  6
16  2  8  9  7  32
17  2  8  33  9  7
18  2  9  34  10  8
19  2  9  10  35  8
20  2  10  9  11  36
21  2  10  9  11  37
22  2  11  10  12  38
23  2  11  10  12  39
24  2  12  11  13  40
25  2  12  41  11  13
26  2  13  42  12  14
27  2  13  43  12  14
