LAMMPS data file Created by LigParGen - (Written by Leela S. Dodda)

      44 atoms
      43 bonds
      82 angles
     116 dihedrals
      27 impropers
 
      44 atom types
      43 bond types
      82 angle types
     116 dihedral types
      27 improper types
 
  -13.664070    36.335930 xlo xhi
    0.107890    50.107890 ylo yhi
   -1.026540    48.973460 zlo zhi

Masses

       1     12.011  
       2     12.011  
       3     12.011  
       4     12.011  
       5     12.011  
       6     12.011  
       7     12.011  
       8     12.011  
       9     12.011  
      10     12.011  
      11     12.011  
      12     12.011  
      13     12.011  
      14     12.011  
      15     15.999  
      16     15.999  
      17      1.008  
      18      1.008  
      19      1.008  
      20      1.008  
      21      1.008  
      22      1.008  
      23      1.008  
      24      1.008  
      25      1.008  
      26      1.008  
      27      1.008  
      28      1.008  
      29      1.008  
      30      1.008  
      31      1.008  
      32      1.008  
      33      1.008  
      34      1.008  
      35      1.008  
      36      1.008  
      37      1.008  
      38      1.008  
      39      1.008  
      40      1.008  
      41      1.008  
      42      1.008  
      43      1.008  
      44      1.008  

Pair Coeffs 

       1      0.066  3.5000000 
       2      0.066  3.5000000 
       3      0.066  3.5000000 
       4      0.066  3.5000000 
       5      0.066  3.5000000 
       6      0.066  3.5000000 
       7      0.066  3.5000000 
       8      0.066  3.5000000 
       9      0.066  3.5000000 
      10      0.066  3.5000000 
      11      0.066  3.5000000 
      12      0.066  3.5000000 
      13      0.066  3.5000000 
      14      0.070  3.5500000 
      15      0.210  2.9600000 
      16      0.170  3.1200000 
      17      0.030  2.5000000 
      18      0.030  2.5000000 
      19      0.030  2.5000000 
      20      0.030  2.5000000 
      21      0.030  2.5000000 
      22      0.030  2.5000000 
      23      0.030  2.5000000 
      24      0.030  2.5000000 
      25      0.030  2.5000000 
      26      0.030  2.5000000 
      27      0.030  2.5000000 
      28      0.030  2.5000000 
      29      0.030  2.5000000 
      30      0.030  2.5000000 
      31      0.030  2.5000000 
      32      0.030  2.5000000 
      33      0.030  2.5000000 
      34      0.030  2.5000000 
      35      0.030  2.5000000 
      36      0.030  2.5000000 
      37      0.030  2.5000000 
      38      0.030  2.5000000 
      39      0.030  2.5000000 
      40      0.030  2.5000000 
      41      0.030  2.5000000 
      42      0.030  2.5000000 
      43      0.030  2.5000000 
      44      0.000  0.0000000 

Bond Coeffs 

       1   268.0000     1.5290 
       2   268.0000     1.5290 
       3   268.0000     1.5290 
       4   268.0000     1.5290 
       5   268.0000     1.5290 
       6   268.0000     1.5290 
       7   268.0000     1.5290 
       8   268.0000     1.5290 
       9   268.0000     1.5290 
      10   268.0000     1.5290 
      11   268.0000     1.5290 
      12   268.0000     1.5290 
      13   317.0000     1.5220 
      14   570.0000     1.2290 
      15   450.0000     1.3640 
      16   340.0000     1.0900 
      17   340.0000     1.0900 
      18   340.0000     1.0900 
      19   340.0000     1.0900 
      20   340.0000     1.0900 
      21   340.0000     1.0900 
      22   340.0000     1.0900 
      23   340.0000     1.0900 
      24   340.0000     1.0900 
      25   340.0000     1.0900 
      26   340.0000     1.0900 
      27   340.0000     1.0900 
      28   340.0000     1.0900 
      29   340.0000     1.0900 
      30   340.0000     1.0900 
      31   340.0000     1.0900 
      32   340.0000     1.0900 
      33   340.0000     1.0900 
      34   340.0000     1.0900 
      35   340.0000     1.0900 
      36   340.0000     1.0900 
      37   340.0000     1.0900 
      38   340.0000     1.0900 
      39   340.0000     1.0900 
      40   340.0000     1.0900 
      41   340.0000     1.0900 
      42   340.0000     1.0900 
      43   553.0000     0.9450 

Angle Coeffs 

       1     58.350    112.700
       2     58.350    112.700
       3     58.350    112.700
       4     58.350    112.700
       5     58.350    112.700
       6     58.350    112.700
       7     58.350    112.700
       8     58.350    112.700
       9     58.350    112.700
      10     58.350    112.700
      11     58.350    112.700
      12     63.000    111.100
      13     80.000    120.400
      14     70.000    108.000
      15     37.500    110.700
      16     37.500    110.700
      17     37.500    110.700
      18     37.500    110.700
      19     37.500    110.700
      20     37.500    110.700
      21     37.500    110.700
      22     37.500    110.700
      23     37.500    110.700
      24     37.500    110.700
      25     37.500    110.700
      26     37.500    110.700
      27     37.500    110.700
      28     37.500    110.700
      29     37.500    110.700
      30     37.500    110.700
      31     37.500    110.700
      32     37.500    110.700
      33     37.500    110.700
      34     37.500    110.700
      35     37.500    110.700
      36     37.500    110.700
      37     37.500    110.700
      38     37.500    110.700
      39     37.500    110.700
      40     37.500    110.700
      41     37.500    110.700
      42     35.000    113.000
      43     37.500    110.700
      44     37.500    110.700
      45     33.000    107.800
      46     37.500    110.700
      47     33.000    107.800
      48     80.000    121.000
      49     37.500    110.700
      50     37.500    110.700
      51     33.000    107.800
      52     37.500    110.700
      53     35.000    109.500
      54     33.000    107.800
      55     33.000    107.800
      56     37.500    110.700
      57     37.500    110.700
      58     37.500    110.700
      59     33.000    107.800
      60     37.500    110.700
      61     37.500    110.700
      62     37.500    110.700
      63     35.000    109.500
      64     33.000    107.800
      65     33.000    107.800
      66     33.000    107.800
      67     37.500    110.700
      68     37.500    110.700
      69     37.500    110.700
      70     37.500    110.700
      71     37.500    110.700
      72     33.000    107.800
      73     37.500    110.700
      74     33.000    107.800
      75     33.000    107.800
      76     33.000    107.800
      77     33.000    107.800
      78     37.500    110.700
      79     33.000    107.800
      80     37.500    110.700
      81     37.500    110.700
      82     37.500    110.700

Dihedral Coeffs  

       1      1.300     -0.200      0.200      0.000 
       2      1.300     -0.200      0.200      0.000 
       3      1.300     -0.200      0.200      0.000 
       4      1.300     -0.200      0.200      0.000 
       5      1.300     -0.200      0.200      0.000 
       6      1.300     -0.200      0.200      0.000 
       7      1.300     -0.200      0.200      0.000 
       8      1.300     -0.200      0.200      0.000 
       9      1.300     -0.200      0.200      0.000 
      10      1.300     -0.200      0.200      0.000 
      11     -2.060     -0.313      0.315      0.000 
      12      0.000      0.000      0.000      0.000 
      13      0.000      0.000      0.300      0.000 
      14      1.500      5.500      0.000      0.000 
      15      0.000      0.000      0.300      0.000 
      16      0.000      0.000      0.300      0.000 
      17      0.000      0.000      0.300      0.000 
      18      0.000      0.000      0.300      0.000 
      19      0.000      0.000      0.300      0.000 
      20      0.000      0.000      0.300      0.000 
      21      0.000      5.500      0.000      0.000 
      22      0.000      0.000      0.300      0.000 
      23      0.000      0.000      0.300      0.000 
      24      0.000      0.000      0.300      0.000 
      25      0.000      0.000      0.300      0.000 
      26      0.000      0.000      0.300      0.000 
      27      0.000      0.000      0.300      0.000 
      28      0.000      0.000      0.300      0.000 
      29      0.000      0.000      0.300      0.000 
      30      0.000      0.000      0.300      0.000 
      31      0.000      0.000      0.300      0.000 
      32      0.000      0.000      0.300      0.000 
      33      0.000      0.000      0.300      0.000 
      34      0.000      0.000      0.300      0.000 
      35      0.000      0.000      0.300      0.000 
      36      0.000      0.000      0.300      0.000 
      37      0.000      0.000      0.300      0.000 
      38      0.000      0.000      0.300      0.000 
      39      0.000      0.000      0.300      0.000 
      40      0.000      0.000      0.300      0.000 
      41      0.000      0.000      0.300      0.000 
      42      0.000      0.000      0.300      0.000 
      43      0.000      0.000      0.300      0.000 
      44      0.000      0.000      0.300      0.000 
      45      0.000      0.000      0.300      0.000 
      46      0.000      0.000      0.300      0.000 
      47      0.000      0.000      0.300      0.000 
      48      0.000      0.000      0.300      0.000 
      49      0.000      0.000      0.300      0.000 
      50      0.000      0.000      0.300      0.000 
      51      0.000      0.000      0.300      0.000 
      52      0.000      0.000      0.300      0.000 
      53      0.000      0.000      0.300      0.000 
      54      0.000      0.000      0.000      0.000 
      55      0.000      0.000      0.300      0.000 
      56      0.000      0.000      0.300      0.000 
      57      0.000      0.000      0.300      0.000 
      58      0.000      0.000      0.300      0.000 
      59      0.000      0.000      0.300      0.000 
      60      0.000      0.000      0.300      0.000 
      61      0.000      0.000      0.300      0.000 
      62      0.000      0.000      0.300      0.000 
      63      0.000      0.000      0.300      0.000 
      64      0.000      0.000      0.300      0.000 
      65      0.000      0.000      0.300      0.000 
      66      0.000      0.000      0.300      0.000 
      67      0.000      0.000      0.300      0.000 
      68      0.000      0.000      0.300      0.000 
      69      0.000      0.000      0.300      0.000 
      70      0.000      0.000      0.300      0.000 
      71      0.000      0.000      0.300      0.000 
      72      0.000      0.000      0.000      0.000 
      73      1.000      0.546      0.450      0.000 
      74      0.000      0.000      0.300      0.000 
      75      0.000      0.000      0.300      0.000 
      76      0.000      0.000      0.300      0.000 
      77      0.000      0.000      0.300      0.000 
      78      0.000      0.000      0.300      0.000 
      79      0.000      0.000      0.300      0.000 
      80      0.000      0.000      0.300      0.000 
      81      0.000      0.000      0.300      0.000 
      82      0.000      0.000      0.300      0.000 
      83      0.000      0.000      0.300      0.000 
      84      0.000      0.000      0.300      0.000 
      85      0.000      0.000      0.300      0.000 
      86      0.000      0.000      0.300      0.000 
      87      0.000      0.000      0.300      0.000 
      88      0.000      0.000      0.300      0.000 
      89      0.000      0.000      0.300      0.000 
      90      0.000      0.000      0.300      0.000 
      91      0.000      0.000      0.300      0.000 
      92      0.000      0.000     -0.100      0.000 
      93      0.000      0.000      0.300      0.000 
      94      0.000      0.000      0.300      0.000 
      95      0.000      0.000      0.300      0.000 
      96      0.000      0.000      0.300      0.000 
      97      0.000      0.000      0.300      0.000 
      98      0.000      0.000      0.300      0.000 
      99      0.000      0.000      0.300      0.000 
     100      0.000      0.000      0.300      0.000 
     101      0.000      0.000      0.300      0.000 
     102      0.000      0.000      0.300      0.000 
     103      0.000      0.000      0.300      0.000 
     104      0.000      0.000      0.300      0.000 
     105      0.000      0.000      0.300      0.000 
     106      0.000      0.000      0.000      0.000 
     107      0.000      0.000      0.300      0.000 
     108      0.000      0.000      0.300      0.000 
     109      0.000      0.000     -0.100      0.000 
     110      0.000      0.000      0.300      0.000 
     111      0.000      0.000      0.300      0.000 
     112      0.000      0.000      0.300      0.000 
     113      0.000      0.000      0.300      0.000 
     114      0.000      0.000      0.000      0.000 
     115      0.000      0.000      0.300      0.000 
     116      0.000      0.000      0.300      0.000 

Improper Coeffs 

       1     10.500      -1       2 
       2      0.000      -1       2 
       3      0.000      -1       2 
       4      0.000      -1       2 
       5      0.000      -1       2 
       6      0.000      -1       2 
       7      0.000      -1       2 
       8      0.000      -1       2 
       9      0.000      -1       2 
      10      0.000      -1       2 
      11      0.000      -1       2 
      12      0.000      -1       2 
      13      0.000      -1       2 
      14      0.000      -1       2 
      15      0.000      -1       2 
      16      0.000      -1       2 
      17      0.000      -1       2 
      18      0.000      -1       2 
      19      0.000      -1       2 
      20      0.000      -1       2 
      21      0.000      -1       2 
      22      0.000      -1       2 
      23      0.000      -1       2 
      24      0.000      -1       2 
      25      0.000      -1       2 
      26      0.000      -1       2 
      27      0.000      -1       2 

Atoms 

     1      1      1 -0.23890000    1.000  1.00000  0.00000
     2      1      2 -0.17920000   -0.520  1.00000  0.00000
     3      1      3 -0.17860000   -1.071  1.00000  1.42399
     4      1      4 -0.17920000   -2.599  0.99820  1.42727
     5      1      5 -0.17920000   -3.141  1.00002  2.85586
     6      1      6 -0.17910000   -4.668  1.00004  2.86732
     7      1      7 -0.17900000   -5.203  1.00366  4.29812
     8      1      8 -0.17930000   -6.729  1.00188  4.31284
     9      1      9 -0.17860000   -7.267  1.00370  5.74269
    10      1     10 -0.17850000   -8.794  1.00010  5.74761
    11      1     11 -0.17970000   -9.349  1.00366  7.17133
    12      1     12 -0.17050000  -10.877  0.99818  7.15334
    13      1     13 -0.26080000  -11.456  0.99982  8.56555
    14      1     14 0.50990000  -12.968  0.99616  8.54774
    15      1     15 -0.44440000  -13.664  0.99236  7.54620
    16      1     16 -0.56000000  -13.493  0.99916  9.79476
    17      1     17 0.08080000    1.379  1.00130 -1.02654
    18      1     18 0.08080000    1.391  0.11163  0.50633
    19      1     19 0.08080000    1.391  1.88703  0.50854
    20      1     20 0.08860000   -0.881  0.11675 -0.53951
    21      1     21 0.08860000   -0.880  1.88368 -0.53977
    22      1     22 0.08930000   -0.705  1.88384  1.96037
    23      1     23 0.08930000   -0.703  0.11751  1.96119
    24      1     24 0.08970000   -2.968  0.11343  0.89422
    25      1     25 0.08970000   -2.970  1.88029  0.89116
    26      1     26 0.08930000   -2.769  1.88384  3.38875
    27      1     27 0.08930000   -2.769  0.11752  3.39102
    28      1     28 0.09020000   -5.040  0.11591  2.33595
    29      1     29 0.09020000   -5.039  1.88248  2.33225
    30      1     30 0.08930000   -4.830  1.88878  4.82786
    31      1     31 0.08930000   -4.828  0.12250  4.83319
    32      1     32 0.09090000   -7.100  0.11682  3.78097
    33      1     33 0.09090000   -7.102  1.88348  3.77698
    34      1     34 0.08930000   -6.898  1.88945  6.27360
    35      1     35 0.08930000   -6.893  0.12202  6.27741
    36      1     36 0.09380000   -9.159  0.11419  5.21375
    37      1     37 0.09380000   -9.164  1.88052  5.20775
    38      1     38 0.08820000   -8.988  1.89028  7.70592
    39      1     39 0.08820000   -8.981  0.12374  7.71282
    40      1     40 0.11100000  -11.234  0.11489  6.60922
    41      1     41 0.11100000  -11.241  1.87681  6.60556
    42      1     42 0.12100000  -11.121  1.89459  9.10107
    43      1     43 0.12100000  -11.117  0.10789  9.10479
    44      1     44 0.45140000  -12.821  1.00317 10.50267

Bonds 

     1      1      2      1
     2      2      3      2
     3      3      4      3
     4      4      5      4
     5      5      6      5
     6      6      7      6
     7      7      8      7
     8      8      9      8
     9      9     10      9
    10     10     11     10
    11     11     12     11
    12     12     13     12
    13     13     14     13
    14     14     15     14
    15     15     16     14
    16     16     17      1
    17     17     18      1
    18     18     19      1
    19     19     20      2
    20     20     21      2
    21     21     22      3
    22     22     23      3
    23     23     24      4
    24     24     25      4
    25     25     26      5
    26     26     27      5
    27     27     28      6
    28     28     29      6
    29     29     30      7
    30     30     31      7
    31     31     32      8
    32     32     33      8
    33     33     34      9
    34     34     35      9
    35     35     36     10
    36     36     37     10
    37     37     38     11
    38     38     39     11
    39     39     40     12
    40     40     41     12
    41     41     42     13
    42     42     43     13
    43     43     44     16

Angles 

     1      1      1      2      3
     2      2      2      3      4
     3      3      3      4      5
     4      4      4      5      6
     5      5      5      6      7
     6      6      6      7      8
     7      7      7      8      9
     8      8      8      9     10
     9      9      9     10     11
    10     10     10     11     12
    11     11     11     12     13
    12     12     12     13     14
    13     13     13     14     15
    14     14     13     14     16
    15     15      2      1     17
    16     16      2      1     18
    17     17      2      1     19
    18     18      1      2     20
    19     19      1      2     21
    20     20      2      3     22
    21     21      2      3     23
    22     22      3      4     24
    23     23      3      4     25
    24     24      4      5     26
    25     25      4      5     27
    26     26      5      6     28
    27     27      5      6     29
    28     28      6      7     30
    29     29      6      7     31
    30     30      7      8     32
    31     31      7      8     33
    32     32      8      9     34
    33     33      8      9     35
    34     34      9     10     36
    35     35      9     10     37
    36     36     10     11     38
    37     37     10     11     39
    38     38     11     12     40
    39     39     11     12     41
    40     40     12     13     42
    41     41     12     13     43
    42     42     14     16     44
    43     43      9      8     32
    44     44     13     12     40
    45     45     17      1     19
    46     46      3      2     20
    47     47     34      9     35
    48     48     15     14     16
    49     49      9      8     33
    50     50      3      2     21
    51     51     28      6     29
    52     52      5      4     24
    53     53     14     13     43
    54     54     36     10     37
    55     55     24      4     25
    56     56      4      3     22
    57     57      7      6     28
    58     58     10      9     34
    59     59     22      3     23
    60     60      4      3     23
    61     61     11     10     36
    62     62      6      5     27
    63     63     14     13     42
    64     64     18      1     19
    65     65     26      5     27
    66     66     32      8     33
    67     67     12     11     39
    68     68      7      6     29
    69     69      5      4     25
    70     70      8      7     31
    71     71     11     10     37
    72     72     40     12     41
    73     73      6      5     26
    74     74     20      2     21
    75     75     17      1     18
    76     76     42     13     43
    77     77     38     11     39
    78     78     12     11     38
    79     79     30      7     31
    80     80     13     12     41
    81     81      8      7     30
    82     82     10      9     35

Dihedrals

     1      1      4      3      2      1 
     2      2      5      4      3      2 
     3      3      6      5      4      3 
     4      4      7      6      5      4 
     5      5      8      7      6      5 
     6      6      9      8      7      6 
     7      7     10      9      8      7 
     8      8     11     10      9      8 
     9      9     12     11     10      9 
    10     10     13     12     11     10 
    11     11     14     13     12     11 
    12     12     15     14     13     12 
    13     13     17      1      2      3 
    14     14     44     16     14     13 
    15     15     31      7      6      5 
    16     16     31      7      8      9 
    17     17     28      6      7      8 
    18     18     35      9     10     11 
    19     19     25      4      3     22 
    20     20     43     13     12     41 
    21     21     44     16     14     15 
    22     22     38     11     10      9 
    23     23     21      2      1     17 
    24     24     20      2      1     18 
    25     25     24      4      3     23 
    26     26     19      1      2      3 
    27     27     38     11     10     36 
    28     28     23      3      2     20 
    29     29     22      3      2     21 
    30     30     33      8      7      6 
    31     31     28      6      5      4 
    32     32     30      7      6      5 
    33     33     25      4      5      6 
    34     34     23      3      4      5 
    35     35     39     11     10     36 
    36     36     38     11     10     37 
    37     37     34      9      8     32 
    38     38     32      8      7     30 
    39     39     41     12     11     39 
    40     40     32      8      7     31 
    41     41     33      8      7     30 
    42     42     29      6      5     27 
    43     43     26      5      4     24 
    44     44     30      7      6     29 
    45     45     31      7      6     28 
    46     46     34      9     10     11 
    47     47     34      9      8     33 
    48     48     35      9      8     32 
    49     49     21      2      1     18 
    50     50     40     12     11     10 
    51     51     20      2      1     19 
    52     52     43     13     12     11 
    53     53     37     10      9     35 
    54     54     43     13     14     16 
    55     55     24      4      3     22 
    56     56     27      5      4     25 
    57     57     35      9      8     33 
    58     58     32      8      9     10 
    59     59     26      5      4      3 
    60     60     41     12     11     38 
    61     61     38     11     12     13 
    62     62     41     12     11     10 
    63     63     39     11     10      9 
    64     64     27      5      6      7 
    65     65     36     10     11     12 
    66     66     37     10      9      8 
    67     67     30      7      8      9 
    68     68     37     10      9     34 
    69     69     36     10      9     35 
    70     70     32      8      7      6 
    71     71     42     13     12     11 
    72     72     42     13     14     16 
    73     73     16     14     13     12 
    74     74     35      9      8      7 
    75     75     33      8      7     31 
    76     76     39     11     12     13 
    77     77     22      3      2     20 
    78     78     42     13     12     41 
    79     79     29      6      7      8 
    80     80     34      9      8      7 
    81     81     24      4      3      2 
    82     82     36     10      9      8 
    83     83     24      4      5      6 
    84     84     20      2      1     17 
    85     85     25      4      3     23 
    86     86     43     13     12     40 
    87     87     36     10      9     34 
    88     88     23      3      2      1 
    89     89     20      2      3      4 
    90     90     31      7      6     29 
    91     91     40     12     11     39 
    92     92     40     12     13     14 
    93     93     23      3      2     21 
    94     94     21      2      3      4 
    95     95     28      6      5     26 
    96     96     26      5      6      7 
    97     97     29      6      5      4 
    98     98     22      3      2      1 
    99     99     39     11     10     37 
   100    100     27      5      4      3 
   101    101     18      1      2      3 
   102    102     37     10     11     12 
   103    103     21      2      1     19 
   104    104     29      6      5     26 
   105    105     28      6      5     27 
   106    106     42     13     14     15 
   107    107     25      4      3      2 
   108    108     22      3      4      5 
   109    109     41     12     13     14 
   110    110     40     12     11     38 
   111    111     33      8      9     10 
   112    112     26      5      4     25 
   113    113     27      5      4     24 
   114    114     43     13     14     15 
   115    115     42     13     12     40 
   116    116     30      7      6     28 

Impropers

     1      1     14     13     15     16 
     2      2      1     18     17      2 
     3      3      1      2     19     17 
     4      4      2      1      3     20 
     5      5      2      1      3     21 
     6      6      3      2      4     22 
     7      7      3      2      4     23 
     8      8      4      3      5     24 
     9      9      4     25      3      5 
    10     10      5     26      4      6 
    11     11      5     27      4      6 
    12     12      6     28      5      7 
    13     13      6      5     29      7 
    14     14      7      8     30      6 
    15     15      7      8     31      6 
    16     16      8      9      7     32 
    17     17      8     33      9      7 
    18     18      9     34     10      8 
    19     19      9     10     35      8 
    20     20     10      9     11     36 
    21     21     10      9     11     37 
    22     22     11     10     12     38 
    23     23     11     10     12     39 
    24     24     12     11     13     40 
    25     25     12     41     11     13 
    26     26     13     42     12     14 
    27     27     13     43     12     14 

