LAMMPS data file Created by LigParGen - (Written by Leela S. Dodda)

      43 atoms
      42 bonds
      81 angles
     114 dihedrals
      27 impropers
 
      43 atom types
      42 bond types
      81 angle types
     114 dihedral types
      27 improper types
 
  -13.610740    36.389260 xlo xhi
    0.111350    50.111350 ylo yhi
   -1.026470    48.973530 zlo zhi

Masses

       1     12.011  
       2     12.011  
       3     12.011  
       4     12.011  
       5     12.011  
       6     12.011  
       7     12.011  
       8     12.011  
       9     12.011  
      10     12.011  
      11     12.011  
      12     12.011  
      13     12.011  
      14     12.011  
      15     15.999  
      16     15.999  
      17      1.008  
      18      1.008  
      19      1.008  
      20      1.008  
      21      1.008  
      22      1.008  
      23      1.008  
      24      1.008  
      25      1.008  
      26      1.008  
      27      1.008  
      28      1.008  
      29      1.008  
      30      1.008  
      31      1.008  
      32      1.008  
      33      1.008  
      34      1.008  
      35      1.008  
      36      1.008  
      37      1.008  
      38      1.008  
      39      1.008  
      40      1.008  
      41      1.008  
      42      1.008  
      43      1.008  

Pair Coeffs 

       1      0.066  3.5000000 
       2      0.066  3.5000000 
       3      0.066  3.5000000 
       4      0.066  3.5000000 
       5      0.066  3.5000000 
       6      0.066  3.5000000 
       7      0.066  3.5000000 
       8      0.066  3.5000000 
       9      0.066  3.5000000 
      10      0.066  3.5000000 
      11      0.066  3.5000000 
      12      0.066  3.5000000 
      13      0.066  3.5000000 
      14      0.070  3.5500000 
      15      0.210  2.9600000 
      16      0.210  2.9600000 
      17      0.030  2.5000000 
      18      0.030  2.5000000 
      19      0.030  2.5000000 
      20      0.030  2.5000000 
      21      0.030  2.5000000 
      22      0.030  2.5000000 
      23      0.030  2.5000000 
      24      0.030  2.5000000 
      25      0.030  2.5000000 
      26      0.030  2.5000000 
      27      0.030  2.5000000 
      28      0.030  2.5000000 
      29      0.030  2.5000000 
      30      0.030  2.5000000 
      31      0.030  2.5000000 
      32      0.030  2.5000000 
      33      0.030  2.5000000 
      34      0.030  2.5000000 
      35      0.030  2.5000000 
      36      0.030  2.5000000 
      37      0.030  2.5000000 
      38      0.030  2.5000000 
      39      0.030  2.5000000 
      40      0.030  2.5000000 
      41      0.030  2.5000000 
      42      0.030  2.5000000 
      43      0.030  2.5000000 

Bond Coeffs 

       1   268.0000     1.5290 
       2   268.0000     1.5290 
       3   268.0000     1.5290 
       4   268.0000     1.5290 
       5   268.0000     1.5290 
       6   268.0000     1.5290 
       7   268.0000     1.5290 
       8   268.0000     1.5290 
       9   268.0000     1.5290 
      10   268.0000     1.5290 
      11   268.0000     1.5290 
      12   268.0000     1.5290 
      13   317.0000     1.5220 
      14   656.0000     1.2500 
      15   656.0000     1.2500 
      16   340.0000     1.0900 
      17   340.0000     1.0900 
      18   340.0000     1.0900 
      19   340.0000     1.0900 
      20   340.0000     1.0900 
      21   340.0000     1.0900 
      22   340.0000     1.0900 
      23   340.0000     1.0900 
      24   340.0000     1.0900 
      25   340.0000     1.0900 
      26   340.0000     1.0900 
      27   340.0000     1.0900 
      28   340.0000     1.0900 
      29   340.0000     1.0900 
      30   340.0000     1.0900 
      31   340.0000     1.0900 
      32   340.0000     1.0900 
      33   340.0000     1.0900 
      34   340.0000     1.0900 
      35   340.0000     1.0900 
      36   340.0000     1.0900 
      37   340.0000     1.0900 
      38   340.0000     1.0900 
      39   340.0000     1.0900 
      40   340.0000     1.0900 
      41   340.0000     1.0900 
      42   340.0000     1.0900 

Angle Coeffs 

       1     58.350    112.700
       2     58.350    112.700
       3     58.350    112.700
       4     58.350    112.700
       5     58.350    112.700
       6     58.350    112.700
       7     58.350    112.700
       8     58.350    112.700
       9     58.350    112.700
      10     58.350    112.700
      11     58.350    112.700
      12     63.000    111.100
      13     70.000    117.000
      14     70.000    117.000
      15     37.500    110.700
      16     37.500    110.700
      17     37.500    110.700
      18     37.500    110.700
      19     37.500    110.700
      20     37.500    110.700
      21     37.500    110.700
      22     37.500    110.700
      23     37.500    110.700
      24     37.500    110.700
      25     37.500    110.700
      26     37.500    110.700
      27     37.500    110.700
      28     37.500    110.700
      29     37.500    110.700
      30     37.500    110.700
      31     37.500    110.700
      32     37.500    110.700
      33     37.500    110.700
      34     37.500    110.700
      35     37.500    110.700
      36     37.500    110.700
      37     37.500    110.700
      38     37.500    110.700
      39     37.500    110.700
      40     37.500    110.700
      41     37.500    110.700
      42     37.500    110.700
      43     37.500    110.700
      44     33.000    107.800
      45     37.500    110.700
      46     33.000    107.800
      47     80.000    126.000
      48     37.500    110.700
      49     37.500    110.700
      50     33.000    107.800
      51     37.500    110.700
      52     35.000    109.500
      53     33.000    107.800
      54     33.000    107.800
      55     37.500    110.700
      56     37.500    110.700
      57     37.500    110.700
      58     33.000    107.800
      59     37.500    110.700
      60     37.500    110.700
      61     37.500    110.700
      62     35.000    109.500
      63     33.000    107.800
      64     33.000    107.800
      65     33.000    107.800
      66     37.500    110.700
      67     37.500    110.700
      68     37.500    110.700
      69     37.500    110.700
      70     37.500    110.700
      71     33.000    107.800
      72     37.500    110.700
      73     33.000    107.800
      74     33.000    107.800
      75     33.000    107.800
      76     33.000    107.800
      77     37.500    110.700
      78     33.000    107.800
      79     37.500    110.700
      80     37.500    110.700
      81     37.500    110.700

Dihedral Coeffs  

       1      1.300     -0.200      0.200      0.000 
       2      1.300     -0.200      0.200      0.000 
       3      1.300     -0.200      0.200      0.000 
       4      1.300     -0.200      0.200      0.000 
       5      1.300     -0.200      0.200      0.000 
       6      1.300     -0.200      0.200      0.000 
       7      1.300     -0.200      0.200      0.000 
       8      1.300     -0.200      0.200      0.000 
       9      1.300     -0.200      0.200      0.000 
      10      1.300     -0.200      0.200      0.000 
      11     -2.060     -0.313      0.315      0.000 
      12      0.000      0.000      0.000      0.000 
      13      0.000      0.000      0.300      0.000 
      14      0.000      0.000      0.300      0.000 
      15      0.000      0.000      0.300      0.000 
      16      0.000      0.000      0.300      0.000 
      17      0.000      0.000      0.300      0.000 
      18      0.000      0.000      0.300      0.000 
      19      0.000      0.000      0.300      0.000 
      20      0.000      0.000      0.300      0.000 
      21      0.000      0.000      0.300      0.000 
      22      0.000      0.000      0.300      0.000 
      23      0.000      0.000      0.300      0.000 
      24      0.000      0.000      0.300      0.000 
      25      0.000      0.000      0.300      0.000 
      26      0.000      0.000      0.300      0.000 
      27      0.000      0.000      0.300      0.000 
      28      0.000      0.000      0.300      0.000 
      29      0.000      0.000      0.300      0.000 
      30      0.000      0.000      0.300      0.000 
      31      0.000      0.000      0.300      0.000 
      32      0.000      0.000      0.300      0.000 
      33      0.000      0.000      0.300      0.000 
      34      0.000      0.000      0.300      0.000 
      35      0.000      0.000      0.300      0.000 
      36      0.000      0.000      0.300      0.000 
      37      0.000      0.000      0.300      0.000 
      38      0.000      0.000      0.300      0.000 
      39      0.000      0.000      0.300      0.000 
      40      0.000      0.000      0.300      0.000 
      41      0.000      0.000      0.300      0.000 
      42      0.000      0.000      0.300      0.000 
      43      0.000      0.000      0.300      0.000 
      44      0.000      0.000      0.300      0.000 
      45      0.000      0.000      0.300      0.000 
      46      0.000      0.000      0.300      0.000 
      47      0.000      0.000      0.300      0.000 
      48      0.000      0.000      0.300      0.000 
      49      0.000      0.000      0.300      0.000 
      50      0.000      0.000      0.300      0.000 
      51      0.000      0.000      0.000      0.000 
      52      0.000      0.000      0.300      0.000 
      53      0.000      0.000      0.300      0.000 
      54      0.000      0.000      0.300      0.000 
      55      0.000      0.000      0.300      0.000 
      56      0.000      0.000      0.300      0.000 
      57      0.000      0.000      0.300      0.000 
      58      0.000      0.000      0.300      0.000 
      59      0.000      0.000      0.300      0.000 
      60      0.000      0.000      0.300      0.000 
      61      0.000      0.000      0.300      0.000 
      62      0.000      0.000      0.300      0.000 
      63      0.000      0.000      0.300      0.000 
      64      0.000      0.000      0.300      0.000 
      65      0.000      0.000      0.300      0.000 
      66      0.000      0.000      0.300      0.000 
      67      0.000      0.000      0.300      0.000 
      68      0.000      0.000      0.300      0.000 
      69      0.000      0.000      0.000      0.000 
      70      0.000      0.000      0.000      0.000 
      71      0.000      0.000      0.300      0.000 
      72      0.000      0.000      0.300      0.000 
      73      0.000      0.000      0.300      0.000 
      74      0.000      0.000      0.300      0.000 
      75      0.000      0.000      0.300      0.000 
      76      0.000      0.000      0.300      0.000 
      77      0.000      0.000      0.300      0.000 
      78      0.000      0.000      0.300      0.000 
      79      0.000      0.000      0.300      0.000 
      80      0.000      0.000      0.300      0.000 
      81      0.000      0.000      0.300      0.000 
      82      0.000      0.000      0.300      0.000 
      83      0.000      0.000      0.300      0.000 
      84      0.000      0.000      0.300      0.000 
      85      0.000      0.000      0.300      0.000 
      86      0.000      0.000      0.300      0.000 
      87      0.000      0.000      0.300      0.000 
      88      0.000      0.000      0.300      0.000 
      89      0.000      0.000      0.300      0.000 
      90      0.000      0.000     -0.100      0.000 
      91      0.000      0.000      0.300      0.000 
      92      0.000      0.000      0.300      0.000 
      93      0.000      0.000      0.300      0.000 
      94      0.000      0.000      0.300      0.000 
      95      0.000      0.000      0.300      0.000 
      96      0.000      0.000      0.300      0.000 
      97      0.000      0.000      0.300      0.000 
      98      0.000      0.000      0.300      0.000 
      99      0.000      0.000      0.300      0.000 
     100      0.000      0.000      0.300      0.000 
     101      0.000      0.000      0.300      0.000 
     102      0.000      0.000      0.300      0.000 
     103      0.000      0.000      0.300      0.000 
     104      0.000      0.000      0.000      0.000 
     105      0.000      0.000      0.300      0.000 
     106      0.000      0.000      0.300      0.000 
     107      0.000      0.000     -0.100      0.000 
     108      0.000      0.000      0.300      0.000 
     109      0.000      0.000      0.300      0.000 
     110      0.000      0.000      0.300      0.000 
     111      0.000      0.000      0.300      0.000 
     112      0.000      0.000      0.000      0.000 
     113      0.000      0.000      0.300      0.000 
     114      0.000      0.000      0.300      0.000 

Improper Coeffs 

       1     10.500      -1       2 
       2      0.000      -1       2 
       3      0.000      -1       2 
       4      0.000      -1       2 
       5      0.000      -1       2 
       6      0.000      -1       2 
       7      0.000      -1       2 
       8      0.000      -1       2 
       9      0.000      -1       2 
      10      0.000      -1       2 
      11      0.000      -1       2 
      12      0.000      -1       2 
      13      0.000      -1       2 
      14      0.000      -1       2 
      15      0.000      -1       2 
      16      0.000      -1       2 
      17      0.000      -1       2 
      18      0.000      -1       2 
      19      0.000      -1       2 
      20      0.000      -1       2 
      21      0.000      -1       2 
      22      0.000      -1       2 
      23      0.000      -1       2 
      24      0.000      -1       2 
      25      0.000      -1       2 
      26      0.000      -1       2 
      27      0.000      -1       2 

Atoms 

     1      1      1 -0.20890000    1.000  1.00000  0.00000
     2      1      2 -0.15770000   -0.520  1.00000  0.00000
     3      1      3 -0.15670000   -1.071  1.00000  1.42385
     4      1      4 -0.15750000   -2.599  1.00180  1.42549
     5      1      5 -0.15740000   -3.143  1.00359  2.85258
     6      1      6 -0.15760000   -4.669  1.00359  2.85912
     7      1      7 -0.15750000   -5.209  1.00719  4.28771
     8      1      8 -0.15790000   -6.735  1.00539  4.29426
     9      1      9 -0.15790000   -7.278  1.00718  5.72177
    10      1     10 -0.15740000   -8.804  1.00356  5.72015
    11      1     11 -0.16120000   -9.361  1.00351  7.14301
    12      1     12 -0.13570000  -10.889  1.00168  7.12502
    13      1     13 -0.23300000  -11.462  1.00340  8.53672
    14      1     14 0.42800000  -12.992  0.99996  8.60860
    15      1     15 -0.63120000  -13.611  0.99612  7.50955
    16      1     16 -0.63120000  -13.451  1.00290  9.78781
    17      1     17 0.06880000    1.379  1.00130 -1.02647
    18      1     18 0.06880000    1.390  0.11135  0.50649
    19      1     19 0.06880000    1.390  1.88742  0.50876
    20      1     20 0.07700000   -0.881  0.11669 -0.53955
    21      1     21 0.07700000   -0.881  1.88335 -0.53957
    22      1     22 0.07760000   -0.703  1.88241  1.96100
    23      1     23 0.07760000   -0.705  0.11614  1.96025
    24      1     24 0.07780000   -2.969  0.11841  0.89125
    25      1     25 0.07780000   -2.967  1.88522  0.88981
    26      1     26 0.07710000   -2.773  1.88737  3.38625
    27      1     27 0.07710000   -2.772  0.12109  3.38851
    28      1     28 0.07750000   -5.041  0.11884  2.32758
    29      1     29 0.07750000   -5.041  1.88564  2.32313
    30      1     30 0.07610000   -4.839  1.89293  4.81829
    31      1     31 0.07610000   -4.837  0.12543  4.82358
    32      1     32 0.07680000   -7.104  0.12083  3.76069
    33      1     33 0.07680000   -7.106  1.88716  3.75774
    34      1     34 0.07340000   -6.910  1.89253  6.25478
    35      1     35 0.07340000   -6.906  0.12583  6.25862
    36      1     36 0.07540000   -9.168  0.11941  5.18272
    37      1     37 0.07540000   -9.171  1.88532  5.18097
    38      1     38 0.06510000   -8.997  1.88765  7.68003
    39      1     39 0.06510000   -8.995  0.12056  7.68087
    40      1     40 0.07940000  -11.246  0.11847  6.58075
    41      1     41 0.07940000  -11.248  1.88280  6.57883
    42      1     42 0.05900000  -11.104  1.88922  9.07554
    43      1     43 0.05900000  -11.101  0.11988  9.07888

Bonds 

     1      1      2      1
     2      2      3      2
     3      3      4      3
     4      4      5      4
     5      5      6      5
     6      6      7      6
     7      7      8      7
     8      8      9      8
     9      9     10      9
    10     10     11     10
    11     11     12     11
    12     12     13     12
    13     13     14     13
    14     14     15     14
    15     15     16     14
    16     16     17      1
    17     17     18      1
    18     18     19      1
    19     19     20      2
    20     20     21      2
    21     21     22      3
    22     22     23      3
    23     23     24      4
    24     24     25      4
    25     25     26      5
    26     26     27      5
    27     27     28      6
    28     28     29      6
    29     29     30      7
    30     30     31      7
    31     31     32      8
    32     32     33      8
    33     33     34      9
    34     34     35      9
    35     35     36     10
    36     36     37     10
    37     37     38     11
    38     38     39     11
    39     39     40     12
    40     40     41     12
    41     41     42     13
    42     42     43     13

Angles 

     1      1      1      2      3
     2      2      2      3      4
     3      3      3      4      5
     4      4      4      5      6
     5      5      5      6      7
     6      6      6      7      8
     7      7      7      8      9
     8      8      8      9     10
     9      9      9     10     11
    10     10     10     11     12
    11     11     11     12     13
    12     12     12     13     14
    13     13     13     14     15
    14     14     13     14     16
    15     15      2      1     17
    16     16      2      1     18
    17     17      2      1     19
    18     18      1      2     20
    19     19      1      2     21
    20     20      2      3     22
    21     21      2      3     23
    22     22      3      4     24
    23     23      3      4     25
    24     24      4      5     26
    25     25      4      5     27
    26     26      5      6     28
    27     27      5      6     29
    28     28      6      7     30
    29     29      6      7     31
    30     30      7      8     32
    31     31      7      8     33
    32     32      8      9     34
    33     33      8      9     35
    34     34      9     10     36
    35     35      9     10     37
    36     36     10     11     38
    37     37     10     11     39
    38     38     11     12     40
    39     39     11     12     41
    40     40     12     13     42
    41     41     12     13     43
    42     42      9      8     32
    43     43     13     12     40
    44     44     17      1     19
    45     45      3      2     20
    46     46     34      9     35
    47     47     15     14     16
    48     48      9      8     33
    49     49      3      2     21
    50     50     28      6     29
    51     51      5      4     24
    52     52     14     13     43
    53     53     36     10     37
    54     54     24      4     25
    55     55      4      3     22
    56     56      7      6     28
    57     57     10      9     34
    58     58     22      3     23
    59     59      4      3     23
    60     60     11     10     36
    61     61      6      5     27
    62     62     14     13     42
    63     63     18      1     19
    64     64     26      5     27
    65     65     32      8     33
    66     66     12     11     39
    67     67      7      6     29
    68     68      5      4     25
    69     69      8      7     31
    70     70     11     10     37
    71     71     40     12     41
    72     72      6      5     26
    73     73     20      2     21
    74     74     17      1     18
    75     75     42     13     43
    76     76     38     11     39
    77     77     12     11     38
    78     78     30      7     31
    79     79     13     12     41
    80     80      8      7     30
    81     81     10      9     35

Dihedrals

     1      1      4      3      2      1 
     2      2      5      4      3      2 
     3      3      6      5      4      3 
     4      4      7      6      5      4 
     5      5      8      7      6      5 
     6      6      9      8      7      6 
     7      7     10      9      8      7 
     8      8     11     10      9      8 
     9      9     12     11     10      9 
    10     10     13     12     11     10 
    11     11     14     13     12     11 
    12     12     15     14     13     12 
    13     13     17      1      2      3 
    14     14     31      7      6      5 
    15     15     31      7      8      9 
    16     16     28      6      7      8 
    17     17     35      9     10     11 
    18     18     25      4      3     22 
    19     19     43     13     12     41 
    20     20     38     11     10      9 
    21     21     21      2      1     17 
    22     22     20      2      1     18 
    23     23     24      4      3     23 
    24     24     19      1      2      3 
    25     25     38     11     10     36 
    26     26     23      3      2     20 
    27     27     22      3      2     21 
    28     28     33      8      7      6 
    29     29     28      6      5      4 
    30     30     30      7      6      5 
    31     31     25      4      5      6 
    32     32     23      3      4      5 
    33     33     39     11     10     36 
    34     34     38     11     10     37 
    35     35     34      9      8     32 
    36     36     32      8      7     30 
    37     37     41     12     11     39 
    38     38     32      8      7     31 
    39     39     33      8      7     30 
    40     40     26      5      4     24 
    41     41     30      7      6     29 
    42     42     31      7      6     28 
    43     43     34      9     10     11 
    44     44     34      9      8     33 
    45     45     35      9      8     32 
    46     46     21      2      1     18 
    47     47     40     12     11     10 
    48     48     20      2      1     19 
    49     49     43     13     12     11 
    50     50     37     10      9     35 
    51     51     43     13     14     16 
    52     52     24      4      3     22 
    53     53     27      5      4     25 
    54     54     35      9      8     33 
    55     55     32      8      9     10 
    56     56     26      5      4      3 
    57     57     41     12     11     38 
    58     58     38     11     12     13 
    59     59     41     12     11     10 
    60     60     39     11     10      9 
    61     61     27      5      6      7 
    62     62     36     10     11     12 
    63     63     37     10      9      8 
    64     64     30      7      8      9 
    65     65     37     10      9     34 
    66     66     36     10      9     35 
    67     67     32      8      7      6 
    68     68     42     13     12     11 
    69     69     42     13     14     16 
    70     70     16     14     13     12 
    71     71     35      9      8      7 
    72     72     33      8      7     31 
    73     73     39     11     12     13 
    74     74     22      3      2     20 
    75     75     42     13     12     41 
    76     76     29      6      7      8 
    77     77     34      9      8      7 
    78     78     24      4      3      2 
    79     79     36     10      9      8 
    80     80     24      4      5      6 
    81     81     20      2      1     17 
    82     82     25      4      3     23 
    83     83     43     13     12     40 
    84     84     36     10      9     34 
    85     85     29      6      5     27 
    86     86     23      3      2      1 
    87     87     20      2      3      4 
    88     88     31      7      6     29 
    89     89     40     12     11     39 
    90     90     40     12     13     14 
    91     91     23      3      2     21 
    92     92     21      2      3      4 
    93     93     28      6      5     26 
    94     94     26      5      6      7 
    95     95     29      6      5      4 
    96     96     22      3      2      1 
    97     97     39     11     10     37 
    98     98     27      5      4      3 
    99     99     18      1      2      3 
   100    100     37     10     11     12 
   101    101     21      2      1     19 
   102    102     29      6      5     26 
   103    103     28      6      5     27 
   104    104     42     13     14     15 
   105    105     25      4      3      2 
   106    106     22      3      4      5 
   107    107     41     12     13     14 
   108    108     40     12     11     38 
   109    109     33      8      9     10 
   110    110     26      5      4     25 
   111    111     27      5      4     24 
   112    112     43     13     14     15 
   113    113     42     13     12     40 
   114    114     30      7      6     28 

Impropers

     1      1     14     13     15     16 
     2      2      1     18     17      2 
     3      3      1      2     19     17 
     4      4      2      1      3     20 
     5      5      2      1      3     21 
     6      6      3      2      4     22 
     7      7      3      2      4     23 
     8      8      4      3      5     24 
     9      9      4     25      3      5 
    10     10      5     26      4      6 
    11     11      5     27      4      6 
    12     12      6     28      5      7 
    13     13      6      5     29      7 
    14     14      7      8     30      6 
    15     15      7      8     31      6 
    16     16      8      9      7     32 
    17     17      8     33      9      7 
    18     18      9     34     10      8 
    19     19      9     10     35      8 
    20     20     10      9     11     36 
    21     21     10      9     11     37 
    22     22     11     10     12     38 
    23     23     11     10     12     39 
    24     24     12     11     13     40 
    25     25     12     41     11     13 
    26     26     13     42     12     14 
    27     27     13     43     12     14 

