LAMMPS data file Created by LigParGen - (Written by Leela S. Dodda)

      39 atoms
      38 bonds
      73 angles
     102 dihedrals
      24 impropers
 
      39 atom types
      38 bond types
      73 angle types
     102 dihedral types
      24 improper types
 
  -11.514070    38.485930 xlo xhi
   -0.150250    49.849750 ylo yhi
   -1.026540    48.973460 zlo zhi

Masses

       1     12.011  
       2     12.011  
       3     12.011  
       4     12.011  
       5     12.011  
       6     12.011  
       7     12.011  
       8     12.011  
       9     12.011  
      10     12.011  
      11     12.011  
      12     12.011  
      13     32.060  
      14      1.008  
      15      1.008  
      16      1.008  
      17      1.008  
      18      1.008  
      19      1.008  
      20      1.008  
      21      1.008  
      22      1.008  
      23      1.008  
      24      1.008  
      25      1.008  
      26      1.008  
      27      1.008  
      28      1.008  
      29      1.008  
      30      1.008  
      31      1.008  
      32      1.008  
      33      1.008  
      34      1.008  
      35      1.008  
      36      1.008  
      37      1.008  
      38      1.008  
      39      1.008  

Pair Coeffs 

       1      0.066  3.5000000 
       2      0.066  3.5000000 
       3      0.066  3.5000000 
       4      0.066  3.5000000 
       5      0.066  3.5000000 
       6      0.066  3.5000000 
       7      0.066  3.5000000 
       8      0.066  3.5000000 
       9      0.066  3.5000000 
      10      0.066  3.5000000 
      11      0.066  3.5000000 
      12      0.066  3.5000000 
      13      0.425  3.6000000 
      14      0.030  2.5000000 
      15      0.030  2.5000000 
      16      0.030  2.5000000 
      17      0.030  2.5000000 
      18      0.030  2.5000000 
      19      0.030  2.5000000 
      20      0.030  2.5000000 
      21      0.030  2.5000000 
      22      0.030  2.5000000 
      23      0.030  2.5000000 
      24      0.030  2.5000000 
      25      0.030  2.5000000 
      26      0.030  2.5000000 
      27      0.030  2.5000000 
      28      0.030  2.5000000 
      29      0.030  2.5000000 
      30      0.030  2.5000000 
      31      0.030  2.5000000 
      32      0.030  2.5000000 
      33      0.030  2.5000000 
      34      0.030  2.5000000 
      35      0.030  2.5000000 
      36      0.030  2.5000000 
      37      0.030  2.5000000 
      38      0.030  2.5000000 
      39      0.000  0.0000000 

Bond Coeffs 

       1   268.0000     1.5290 
       2   268.0000     1.5290 
       3   268.0000     1.5290 
       4   268.0000     1.5290 
       5   268.0000     1.5290 
       6   268.0000     1.5290 
       7   268.0000     1.5290 
       8   268.0000     1.5290 
       9   268.0000     1.5290 
      10   268.0000     1.5290 
      11   268.0000     1.5290 
      12   222.0000     1.8100 
      13   340.0000     1.0900 
      14   340.0000     1.0900 
      15   340.0000     1.0900 
      16   340.0000     1.0900 
      17   340.0000     1.0900 
      18   340.0000     1.0900 
      19   340.0000     1.0900 
      20   340.0000     1.0900 
      21   340.0000     1.0900 
      22   340.0000     1.0900 
      23   340.0000     1.0900 
      24   340.0000     1.0900 
      25   340.0000     1.0900 
      26   340.0000     1.0900 
      27   340.0000     1.0900 
      28   340.0000     1.0900 
      29   340.0000     1.0900 
      30   340.0000     1.0900 
      31   340.0000     1.0900 
      32   340.0000     1.0900 
      33   340.0000     1.0900 
      34   340.0000     1.0900 
      35   340.0000     1.0900 
      36   340.0000     1.0900 
      37   340.0000     1.0900 
      38   274.0000     1.3360 

Angle Coeffs 

       1     58.350    112.700
       2     58.350    112.700
       3     58.350    112.700
       4     58.350    112.700
       5     58.350    112.700
       6     58.350    112.700
       7     58.350    112.700
       8     58.350    112.700
       9     58.350    112.700
      10     58.350    112.700
      11     50.000    108.600
      12     37.500    110.700
      13     37.500    110.700
      14     37.500    110.700
      15     37.500    110.700
      16     37.500    110.700
      17     37.500    110.700
      18     37.500    110.700
      19     37.500    110.700
      20     37.500    110.700
      21     37.500    110.700
      22     37.500    110.700
      23     37.500    110.700
      24     37.500    110.700
      25     37.500    110.700
      26     37.500    110.700
      27     37.500    110.700
      28     37.500    110.700
      29     37.500    110.700
      30     37.500    110.700
      31     37.500    110.700
      32     37.500    110.700
      33     37.500    110.700
      34     37.500    110.700
      35     37.500    110.700
      36     37.500    110.700
      37     44.000     96.000
      38     37.500    110.700
      39     37.500    110.700
      40     37.500    110.700
      41     37.500    110.700
      42     35.000    109.500
      43     37.500    110.700
      44     33.000    107.800
      45     33.000    107.800
      46     33.000    107.800
      47     37.500    110.700
      48     37.500    110.700
      49     37.500    110.700
      50     33.000    107.800
      51     37.500    110.700
      52     37.500    110.700
      53     33.000    107.800
      54     33.000    107.800
      55     37.500    110.700
      56     35.000    109.500
      57     37.500    110.700
      58     33.000    107.800
      59     37.500    110.700
      60     33.000    107.800
      61     33.000    107.800
      62     33.000    107.800
      63     37.500    110.700
      64     33.000    107.800
      65     33.000    107.800
      66     37.500    110.700
      67     33.000    107.800
      68     37.500    110.700
      69     37.500    110.700
      70     33.000    107.800
      71     37.500    110.700
      72     37.500    110.700
      73     37.500    110.700

Dihedral Coeffs  

       1      1.300     -0.200      0.200      0.000 
       2      1.300     -0.200      0.200      0.000 
       3      1.300     -0.200      0.200      0.000 
       4      1.300     -0.200      0.200      0.000 
       5      1.300     -0.200      0.200      0.000 
       6      1.300     -0.200      0.200      0.000 
       7      1.300     -0.200      0.200      0.000 
       8      1.300     -0.200      0.200      0.000 
       9      1.300     -0.200      0.200      0.000 
      10      1.262     -0.198      0.465      0.000 
      11      0.000      0.000      0.300      0.000 
      12     -0.759     -0.282      0.680      0.000 
      13      0.000      0.000      0.300      0.000 
      14      0.000      0.000      0.480      0.000 
      15      0.000      0.000      0.300      0.000 
      16      0.000      0.000      0.452      0.000 
      17      0.000      0.000      0.300      0.000 
      18      0.000      0.000      0.300      0.000 
      19      0.000      0.000      0.300      0.000 
      20      0.000      0.000      0.300      0.000 
      21      0.000      0.000      0.300      0.000 
      22      0.000      0.000      0.300      0.000 
      23      0.000      0.000      0.300      0.000 
      24      0.000      0.000      0.300      0.000 
      25      0.000      0.000      0.300      0.000 
      26      0.000      0.000      0.300      0.000 
      27      0.000      0.000      0.300      0.000 
      28      0.000      0.000      0.300      0.000 
      29      0.000      0.000      0.300      0.000 
      30      0.000      0.000      0.300      0.000 
      31      0.000      0.000      0.300      0.000 
      32      0.000      0.000      0.300      0.000 
      33      0.000      0.000      0.300      0.000 
      34      0.000      0.000      0.300      0.000 
      35      0.000      0.000      0.300      0.000 
      36      0.000      0.000      0.300      0.000 
      37      0.000      0.000      0.300      0.000 
      38      0.000      0.000      0.300      0.000 
      39      0.000      0.000      0.300      0.000 
      40      0.000      0.000      0.300      0.000 
      41      0.000      0.000      0.300      0.000 
      42      0.000      0.000      0.300      0.000 
      43      0.000      0.000      0.300      0.000 
      44      0.000      0.000      0.480      0.000 
      45      0.000      0.000      0.300      0.000 
      46      0.000      0.000      0.300      0.000 
      47      0.000      0.000      0.300      0.000 
      48      0.000      0.000      0.300      0.000 
      49      0.000      0.000      0.300      0.000 
      50      0.000      0.000      0.300      0.000 
      51      0.000      0.000      0.300      0.000 
      52      0.000      0.000      0.300      0.000 
      53      0.000      0.000      0.300      0.000 
      54      0.000      0.000      0.300      0.000 
      55      0.000      0.000      0.300      0.000 
      56      0.000      0.000      0.300      0.000 
      57      0.000      0.000      0.300      0.000 
      58      0.000      0.000      0.300      0.000 
      59      0.000      0.000      0.300      0.000 
      60      0.000      0.000      0.300      0.000 
      61      0.000      0.000      0.300      0.000 
      62      0.000      0.000      0.300      0.000 
      63      0.000      0.000      0.300      0.000 
      64      0.000      0.000      0.300      0.000 
      65      0.000      0.000      0.300      0.000 
      66      0.000      0.000      0.300      0.000 
      67      0.000      0.000      0.300      0.000 
      68      0.000      0.000      0.300      0.000 
      69      0.000      0.000      0.300      0.000 
      70      0.000      0.000      0.300      0.000 
      71      0.000      0.000      0.300      0.000 
      72      0.000      0.000      0.300      0.000 
      73      0.000      0.000      0.300      0.000 
      74      0.000      0.000      0.300      0.000 
      75      0.000      0.000      0.300      0.000 
      76      0.000      0.000      0.300      0.000 
      77      0.000      0.000      0.300      0.000 
      78      0.000      0.000      0.300      0.000 
      79      0.000      0.000      0.300      0.000 
      80      0.000      0.000      0.300      0.000 
      81      0.000      0.000      0.300      0.000 
      82      0.000      0.000      0.300      0.000 
      83      0.000      0.000      0.300      0.000 
      84      0.000      0.000      0.300      0.000 
      85      0.000      0.000      0.300      0.000 
      86      0.000      0.000      0.300      0.000 
      87      0.000      0.000      0.300      0.000 
      88      0.000      0.000      0.300      0.000 
      89      0.000      0.000      0.300      0.000 
      90      0.000      0.000      0.300      0.000 
      91      0.000      0.000      0.300      0.000 
      92      0.000      0.000      0.300      0.000 
      93      0.000      0.000      0.300      0.000 
      94      0.000      0.000      0.300      0.000 
      95      0.000      0.000      0.300      0.000 
      96      0.000      0.000      0.452      0.000 
      97      0.000      0.000      0.300      0.000 
      98      0.000      0.000      0.300      0.000 
      99      0.000      0.000      0.300      0.000 
     100      0.000      0.000      0.300      0.000 
     101      0.000      0.000      0.300      0.000 
     102      0.000      0.000      0.300      0.000 

Improper Coeffs 

       1      0.000      -1       2 
       2      0.000      -1       2 
       3      0.000      -1       2 
       4      0.000      -1       2 
       5      0.000      -1       2 
       6      0.000      -1       2 
       7      0.000      -1       2 
       8      0.000      -1       2 
       9      0.000      -1       2 
      10      0.000      -1       2 
      11      0.000      -1       2 
      12      0.000      -1       2 
      13      0.000      -1       2 
      14      0.000      -1       2 
      15      0.000      -1       2 
      16      0.000      -1       2 
      17      0.000      -1       2 
      18      0.000      -1       2 
      19      0.000      -1       2 
      20      0.000      -1       2 
      21      0.000      -1       2 
      22      0.000      -1       2 
      23      0.000      -1       2 
      24      0.000      -1       2 

Atoms 

     1      1      1 -0.23880000    1.000  1.00000  0.00000
     2      1      2 -0.17920000   -0.520  1.00000  0.00000
     3      1      3 -0.17840000   -1.075  1.00000  1.42331
     4      1      4 -0.17900000   -2.604  1.00180  1.42495
     5      1      5 -0.17900000   -3.152  1.00359  2.85215
     6      1      6 -0.17870000   -4.680  1.00360  2.86035
     7      1      7 -0.17890000   -5.221  1.00720  4.28973
     8      1      8 -0.17870000   -6.750  1.00901  4.30284
     9      1      9 -0.17840000   -7.288  1.01081  5.73354
    10      1     10 -0.18010000   -8.817  1.01083  5.74830
    11      1     11 -0.18390000   -9.356  1.01082  7.18054
    12      1     12 0.01250000  -10.882  1.00903  7.18546
    13      1     13 -0.44150000  -11.514  1.01119  8.88726
    14      1     14 0.08090000    1.379  0.99870 -1.02654
    15      1     15 0.08090000    1.391  0.11256  0.50742
    16      1     16 0.08090000    1.391  1.88897  0.50532
    17      1     17 0.08830000   -0.880  0.11702 -0.54077
    18      1     18 0.08830000   -0.880  1.88297 -0.54076
    19      1     19 0.08950000   -0.706  1.88220  1.96073
    20      1     20 0.08950000   -0.708  0.11628  1.96001
    21      1     21 0.08940000   -2.973  0.11874  0.88950
    22      1     22 0.08940000   -2.971  1.88547  0.88912
    23      1     23 0.08960000   -2.781  1.88693  3.38594
    24      1     24 0.08960000   -2.782  0.12067  3.38797
    25      1     25 0.08970000   -5.051  0.11918  2.32799
    26      1     26 0.08970000   -5.051  1.88529  2.32355
    27      1     27 0.09000000   -4.848  1.89133  4.82094
    28      1     28 0.09000000   -4.849  0.12505  4.82496
    29      1     29 0.09020000   -7.122  0.12497  3.77098
    30      1     30 0.09020000   -7.121  1.89193  3.76883
    31      1     31 0.09130000   -6.915  1.89490  6.26465
    32      1     32 0.09130000   -6.915  0.12800  6.26690
    33      1     33 0.09150000   -9.189  0.12732  5.21502
    34      1     34 0.09150000   -9.189  1.89425  5.21509
    35      1     35 0.10180000   -8.978  1.89642  7.70669
    36      1     36 0.10180000   -8.975  0.12627  7.70649
    37      1     37 0.12600000  -11.267  0.12142  6.67341
    38      1     38 0.12600000  -11.269  1.89513  6.67248
    39      1     39 0.14530000  -10.956 -0.15025  9.25959

Bonds 

     1      1      2      1
     2      2      3      2
     3      3      4      3
     4      4      5      4
     5      5      6      5
     6      6      7      6
     7      7      8      7
     8      8      9      8
     9      9     10      9
    10     10     11     10
    11     11     12     11
    12     12     13     12
    13     13     14      1
    14     14     15      1
    15     15     16      1
    16     16     17      2
    17     17     18      2
    18     18     19      3
    19     19     20      3
    20     20     21      4
    21     21     22      4
    22     22     23      5
    23     23     24      5
    24     24     25      6
    25     25     26      6
    26     26     27      7
    27     27     28      7
    28     28     29      8
    29     29     30      8
    30     30     31      9
    31     31     32      9
    32     32     33     10
    33     33     34     10
    34     34     35     11
    35     35     36     11
    36     36     37     12
    37     37     38     12
    38     38     39     13

Angles 

     1      1      1      2      3
     2      2      2      3      4
     3      3      3      4      5
     4      4      4      5      6
     5      5      5      6      7
     6      6      6      7      8
     7      7      7      8      9
     8      8      8      9     10
     9      9      9     10     11
    10     10     10     11     12
    11     11     11     12     13
    12     12      2      1     14
    13     13      2      1     15
    14     14      2      1     16
    15     15      1      2     17
    16     16      1      2     18
    17     17      2      3     19
    18     18      2      3     20
    19     19      3      4     21
    20     20      3      4     22
    21     21      4      5     23
    22     22      4      5     24
    23     23      5      6     25
    24     24      5      6     26
    25     25      6      7     27
    26     26      6      7     28
    27     27      7      8     29
    28     28      7      8     30
    29     29      8      9     31
    30     30      8      9     32
    31     31      9     10     33
    32     32      9     10     34
    33     33     10     11     35
    34     34     10     11     36
    35     35     11     12     37
    36     36     11     12     38
    37     37     12     13     39
    38     38      8      7     28
    39     39      8      7     27
    40     40      6      5     24
    41     41      9      8     30
    42     42     13     12     37
    43     43      3      2     18
    44     44     29      8     30
    45     45     27      7     28
    46     46     37     12     38
    47     47      9      8     29
    48     48      3      2     17
    49     49      7      6     25
    50     50     23      5     24
    51     51      4      3     19
    52     52     12     11     36
    53     53     21      4     22
    54     54     15      1     16
    55     55      7      6     26
    56     56     13     12     38
    57     57      5      4     22
    58     58     14      1     15
    59     59     10      9     31
    60     60     17      2     18
    61     61     25      6     26
    62     62     19      3     20
    63     63     11     10     34
    64     64     33     10     34
    65     65     31      9     32
    66     66      6      5     23
    67     67     14      1     16
    68     68      5      4     21
    69     69      4      3     20
    70     70     35     11     36
    71     71     11     10     33
    72     72     10      9     32
    73     73     12     11     35

Dihedrals

     1      1      4      3      2      1 
     2      2      5      4      3      2 
     3      3      6      5      4      3 
     4      4      7      6      5      4 
     5      5      8      7      6      5 
     6      6      9      8      7      6 
     7      7     10      9      8      7 
     8      8     11     10      9      8 
     9      9     12     11     10      9 
    10     10     13     12     11     10 
    11     11     14      1      2      3 
    12     12     39     13     12     11 
    13     13     35     11     10     33 
    14     14     39     13     12     38 
    15     15     28      7      8      9 
    16     16     36     11     12     13 
    17     17     28      7      6     25 
    18     18     27      7      6     26 
    19     19     28      7      6     26 
    20     20     32      9     10     11 
    21     21     34     10      9     31 
    22     22     33     10      9     32 
    23     23     36     11     10     33 
    24     24     34     10     11     12 
    25     25     30      8      9     10 
    26     26     28      7      6      5 
    27     27     25      6      7      8 
    28     28     34     10      9     32 
    29     29     23      5      6      7 
    30     30     30      8      7     28 
    31     31     29      8      7     27 
    32     32     18      2      1     15 
    33     33     17      2      3      4 
    34     34     30      8      7     27 
    35     35     29      8      7     28 
    36     36     27      7      8      9 
    37     37     30      8      7      6 
    38     38     35     11     10      9 
    39     39     19      3      2      1 
    40     40     37     12     11     10 
    41     41     25      6      5     23 
    42     42     38     12     11     36 
    43     43     26      6      5      4 
    44     44     39     13     12     37 
    45     45     20      3      2      1 
    46     46     21      4      3     19 
    47     47     20      3      2     18 
    48     48     22      4      3     20 
    49     49     18      2      1     14 
    50     50     17      2      1     15 
    51     51     17      2      1     16 
    52     52     23      5      4     21 
    53     53     22      4      3      2 
    54     54     33     10      9     31 
    55     55     20      3      4      5 
    56     56     32      9      8     30 
    57     57     35     11     10     34 
    58     58     24      5      6      7 
    59     59     23      5      4      3 
    60     60     37     12     11     35 
    61     61     21      4      3      2 
    62     62     34     10      9      8 
    63     63     31      9     10     11 
    64     64     29      8      9     10 
    65     65     26      6      5     24 
    66     66     31      9      8     30 
    67     67     33     10      9      8 
    68     68     24      5      4      3 
    69     69     26      6      5     23 
    70     70     25      6      5     24 
    71     71     24      5      4     22 
    72     72     27      7      6     25 
    73     73     32      9      8      7 
    74     74     31      9      8     29 
    75     75     15      1      2      3 
    76     76     27      7      6      5 
    77     77     25      6      5      4 
    78     78     37     12     11     36 
    79     79     33     10     11     12 
    80     80     21      4      3     20 
    81     81     22      4      3     19 
    82     82     29      8      7      6 
    83     83     26      6      7      8 
    84     84     20      3      2     17 
    85     85     19      3      2     18 
    86     86     36     11     10     34 
    87     87     19      3      2     17 
    88     88     21      4      5      6 
    89     89     31      9      8      7 
    90     90     19      3      4      5 
    91     91     36     11     10      9 
    92     92     18      2      3      4 
    93     93     38     12     11     10 
    94     94     24      5      4     21 
    95     95     23      5      4     22 
    96     96     35     11     12     13 
    97     97     22      4      5      6 
    98     98     32      9      8     29 
    99     99     16      1      2      3 
   100    100     38     12     11     35 
   101    101     17      2      1     14 
   102    102     18      2      1     16 

Impropers

     1      1      1      2     14     15 
     2      2      1      2     14     16 
     3      3      2     17      3      1 
     4      4      2      1     18      3 
     5      5      3      2     19      4 
     6      6      3      4      2     20 
     7      7      4      5      3     21 
     8      8      4      3      5     22 
     9      9      5      4      6     23 
    10     10      5      4      6     24 
    11     11      6     25      5      7 
    12     12      6     26      5      7 
    13     13      7     27      6      8 
    14     14      7     28      6      8 
    15     15      8      9     29      7 
    16     16      8      9     30      7 
    17     17      9     10     31      8 
    18     18      9     10      8     32 
    19     19     10     33     11      9 
    20     20     10      9     34     11 
    21     21     11     10     35     12 
    22     22     11     12     10     36 
    23     23     12     13     11     37 
    24     24     12     11     13     38 

