#C12_thiol

39 atoms
4 atom types

38 bonds
4 bond types

73 angles
6 angle types

102 dihedrals
6 dihedral types

24 impropers
1 improper types

-11.51407  38.48593  xlo xhi
-0.15025  49.84975  ylo yhi
-1.02654  48.97346  zlo zhi

Masses

1  12.011
2  32.06
3  1.008
4  1.008

Pair Coeffs

1  0.066  3.5
2  0.425  3.6
3  0.03  2.5
4  0.0  0.0

Bond Coeffs

1  268.0  1.529
2  222.0  1.81
3  340.0  1.09
4  274.0  1.336

Angle Coeffs

1  58.35  112.7
2  50.0  108.6
3  37.5  110.7
4  44.0  96.0
5  35.0  109.5
6  33.0  107.8

Dihedral Coeffs

1  1.3  -0.2  0.2  0.0
2  1.262  -0.198  0.465  0.0
3  0.0  0.0  0.3  0.0
4  -0.759  -0.282  0.68  0.0
5  0.0  0.0  0.48  0.0
6  0.0  0.0  0.452  0.0

Improper Coeffs

1  0.0  -1.0  2.0

Atoms # full

1  1  1  -0.2388   1   1   0
2  1  1  -0.1792  -0.52   1   0
3  1  1  -0.1784  -1.075   1   1.42331
4  1  1  -0.179  -2.604   1.0018   1.42495
5  1  1  -0.179  -3.152   1.00359   2.85215
6  1  1  -0.1787  -4.68   1.0036   2.86035
7  1  1  -0.1789  -5.221   1.0072   4.28973
8  1  1  -0.1787  -6.75   1.00901   4.30284
9  1  1  -0.1784  -7.288   1.01081   5.73354
10  1  1  -0.1801  -8.817   1.01083   5.7483
11  1  1  -0.1839  -9.356   1.01082   7.18054
12  1  1   0.0125  -10.882   1.00903   7.18546
13  1  2  -0.4415  -11.514   1.01119   8.88726
14  1  3   0.0809   1.379   0.9987  -1.02654
15  1  3   0.0809   1.391   0.11256   0.50742
16  1  3   0.0809   1.391   1.88897   0.50532
17  1  3   0.0883  -0.88   0.11702  -0.54077
18  1  3   0.0883  -0.88   1.88297  -0.54076
19  1  3   0.0895  -0.706   1.8822   1.96073
20  1  3   0.0895  -0.708   0.11628   1.96001
21  1  3   0.0894  -2.973   0.11874   0.8895
22  1  3   0.0894  -2.971   1.88547   0.88912
23  1  3   0.0896  -2.781   1.88693   3.38594
24  1  3   0.0896  -2.782   0.12067   3.38797
25  1  3   0.0897  -5.051   0.11918   2.32799
26  1  3   0.0897  -5.051   1.88529   2.32355
27  1  3   0.09  -4.848   1.89133   4.82094
28  1  3   0.09  -4.849   0.12505   4.82496
29  1  3   0.0902  -7.122   0.12497   3.77098
30  1  3   0.0902  -7.121   1.89193   3.76883
31  1  3   0.0913  -6.915   1.8949   6.26465
32  1  3   0.0913  -6.915   0.128   6.2669
33  1  3   0.0915  -9.189   0.12732   5.21502
34  1  3   0.0915  -9.189   1.89425   5.21509
35  1  3   0.1018  -8.978   1.89642   7.70669
36  1  3   0.1018  -8.975   0.12627   7.70649
37  1  3   0.126  -11.267   0.12142   6.67341
38  1  3   0.126  -11.269   1.89513   6.67248
39  1  4   0.1453  -10.956  -0.15025   9.25959

Bonds

1  1  2  1
2  1  3  2
3  1  4  3
4  1  5  4
5  1  6  5
6  1  7  6
7  1  8  7
8  1  9  8
9  1  10  9
10  1  11  10
11  1  12  11
12  2  13  12
13  3  14  1
14  3  15  1
15  3  16  1
16  3  17  2
17  3  18  2
18  3  19  3
19  3  20  3
20  3  21  4
21  3  22  4
22  3  23  5
23  3  24  5
24  3  25  6
25  3  26  6
26  3  27  7
27  3  28  7
28  3  29  8
29  3  30  8
30  3  31  9
31  3  32  9
32  3  33  10
33  3  34  10
34  3  35  11
35  3  36  11
36  3  37  12
37  3  38  12
38  4  39  13

Angles

1  1  1  2  3
2  1  2  3  4
3  1  3  4  5
4  1  4  5  6
5  1  5  6  7
6  1  6  7  8
7  1  7  8  9
8  1  8  9  10
9  1  9  10  11
10  1  10  11  12
11  2  11  12  13
12  3  2  1  14
13  3  2  1  15
14  3  2  1  16
15  3  1  2  17
16  3  1  2  18
17  3  2  3  19
18  3  2  3  20
19  3  3  4  21
20  3  3  4  22
21  3  4  5  23
22  3  4  5  24
23  3  5  6  25
24  3  5  6  26
25  3  6  7  27
26  3  6  7  28
27  3  7  8  29
28  3  7  8  30
29  3  8  9  31
30  3  8  9  32
31  3  9  10  33
32  3  9  10  34
33  3  10  11  35
34  3  10  11  36
35  3  11  12  37
36  3  11  12  38
37  4  12  13  39
38  3  8  7  28
39  3  8  7  27
40  3  6  5  24
41  3  9  8  30
42  5  13  12  37
43  3  3  2  18
44  6  29  8  30
45  6  27  7  28
46  6  37  12  38
47  3  9  8  29
48  3  3  2  17
49  3  7  6  25
50  6  23  5  24
51  3  4  3  19
52  3  12  11  36
53  6  21  4  22
54  6  15  1  16
55  3  7  6  26
56  5  13  12  38
57  3  5  4  22
58  6  14  1  15
59  3  10  9  31
60  6  17  2  18
61  6  25  6  26
62  6  19  3  20
63  3  11  10  34
64  6  33  10  34
65  6  31  9  32
66  3  6  5  23
67  6  14  1  16
68  3  5  4  21
69  3  4  3  20
70  6  35  11  36
71  3  11  10  33
72  3  10  9  32
73  3  12  11  35

Dihedrals

1  1  4  3  2  1
2  1  5  4  3  2
3  1  6  5  4  3
4  1  7  6  5  4
5  1  8  7  6  5
6  1  9  8  7  6
7  1  10  9  8  7
8  1  11  10  9  8
9  1  12  11  10  9
10  2  13  12  11  10
11  3  14  1  2  3
12  4  39  13  12  11
13  3  35  11  10  33
14  5  39  13  12  38
15  3  28  7  8  9
16  6  36  11  12  13
17  3  28  7  6  25
18  3  27  7  6  26
19  3  28  7  6  26
20  3  32  9  10  11
21  3  34  10  9  31
22  3  33  10  9  32
23  3  36  11  10  33
24  3  34  10  11  12
25  3  30  8  9  10
26  3  28  7  6  5
27  3  25  6  7  8
28  3  34  10  9  32
29  3  23  5  6  7
30  3  30  8  7  28
31  3  29  8  7  27
32  3  18  2  1  15
33  3  17  2  3  4
34  3  30  8  7  27
35  3  29  8  7  28
36  3  27  7  8  9
37  3  30  8  7  6
38  3  35  11  10  9
39  3  19  3  2  1
40  3  37  12  11  10
41  3  25  6  5  23
42  3  38  12  11  36
43  3  26  6  5  4
44  5  39  13  12  37
45  3  20  3  2  1
46  3  21  4  3  19
47  3  20  3  2  18
48  3  22  4  3  20
49  3  18  2  1  14
50  3  17  2  1  15
51  3  17  2  1  16
52  3  23  5  4  21
53  3  22  4  3  2
54  3  33  10  9  31
55  3  20  3  4  5
56  3  32  9  8  30
57  3  35  11  10  34
58  3  24  5  6  7
59  3  23  5  4  3
60  3  37  12  11  35
61  3  21  4  3  2
62  3  34  10  9  8
63  3  31  9  10  11
64  3  29  8  9  10
65  3  26  6  5  24
66  3  31  9  8  30
67  3  33  10  9  8
68  3  24  5  4  3
69  3  26  6  5  23
70  3  25  6  5  24
71  3  24  5  4  22
72  3  27  7  6  25
73  3  32  9  8  7
74  3  31  9  8  29
75  3  15  1  2  3
76  3  27  7  6  5
77  3  25  6  5  4
78  3  37  12  11  36
79  3  33  10  11  12
80  3  21  4  3  20
81  3  22  4  3  19
82  3  29  8  7  6
83  3  26  6  7  8
84  3  20  3  2  17
85  3  19  3  2  18
86  3  36  11  10  34
87  3  19  3  2  17
88  3  21  4  5  6
89  3  31  9  8  7
90  3  19  3  4  5
91  3  36  11  10  9
92  3  18  2  3  4
93  3  38  12  11  10
94  3  24  5  4  21
95  3  23  5  4  22
96  6  35  11  12  13
97  3  22  4  5  6
98  3  32  9  8  29
99  3  16  1  2  3
100  3  38  12  11  35
101  3  17  2  1  14
102  3  18  2  1  16

Impropers

1  1  1  2  14  15
2  1  1  2  14  16
3  1  2  17  3  1
4  1  2  1  18  3
5  1  3  2  19  4
6  1  3  4  2  20
7  1  4  5  3  21
8  1  4  3  5  22
9  1  5  4  6  23
10  1  5  4  6  24
11  1  6  25  5  7
12  1  6  26  5  7
13  1  7  27  6  8
14  1  7  28  6  8
15  1  8  9  29  7
16  1  8  9  30  7
17  1  9  10  31  8
18  1  9  10  8  32
19  1  10  33  11  9
20  1  10  9  34  11
21  1  11  10  35  12
22  1  11  12  10  36
23  1  12  13  11  37
24  1  12  11  13  38
