#C12_anion

38 atoms
3 atom types

37 bonds
3 bond types

72 angles
5 angle types

99 dihedrals
4 dihedral types

24 impropers
1 improper types

-11.52665  38.47335  xlo xhi
0  50.10414  ylo yhi
-1.02666  48.97334  zlo zhi

Masses

1  12.011
2  32.06
3  1.008

Pair Coeffs

1  0.066  3.5
2  0.355  3.55
3  0.03  2.5

Bond Coeffs

1  268.0  1.529
2  340.0  1.77
3  340.0  1.09

Angle Coeffs

1  58.35  112.7
2  50.0  108.6
3  37.5  110.7
4  35.0  109.5
5  33.0  107.8

Dihedral Coeffs

1  1.3  -0.2  0.2  0.0
2  1.262  -0.198  0.465  0.0
3  0.0  0.0  0.3  0.0
4  0.0  0.0  0.452  0.0

Improper Coeffs

1  0.0  -1.0  2.0

Atoms # full

1  1  1  -0.2089   1   1   0
2  1  1  -0.1576  -0.52   1   0
3  1  1  -0.1566  -1.075   1   1.42355
4  1  1  -0.1573  -2.604   0.9982   1.42355
5  1  1  -0.1573  -3.153   0.9964   2.85023
6  1  1  -0.1573  -4.682   0.9928   2.85515
7  1  1  -0.1576  -5.228   0.99281   4.28308
8  1  1  -0.158  -6.757   0.99101   4.28963
9  1  1  -0.1565  -7.303   0.99283   5.71736
10  1  1  -0.1683  -8.831   0.98922   5.72392
11  1  1  -0.1505  -9.382   0.98923   7.1537
12  1  1  -0.0858  -10.916   0.98742   7.14877
13  1  2  -0.8979  -11.527   0.98967   8.87586
14  1  3   0.0684   1.379   1.0013  -1.02666
15  1  3   0.0684   1.391   0.11168   0.5063
16  1  3   0.0684   1.391   1.88762   0.50752
17  1  3   0.0764  -0.88   0.11707  -0.54074
18  1  3   0.0764  -0.88   1.88304  -0.5408
19  1  3   0.0777  -0.708   1.88349   1.96011
20  1  3   0.0777  -0.707   0.11722   1.96056
21  1  3   0.0769  -2.971   0.11516   0.88629
22  1  3   0.0769  -2.973   1.88128   0.88768
23  1  3   0.0772  -2.785   1.88009   3.38605
24  1  3   0.0772  -2.782   0.11366   3.38493
25  1  3   0.0759  -5.049   0.1084   2.32059
26  1  3   0.0759  -5.054   1.87452   2.31895
27  1  3   0.0762  -4.859   1.87699   4.81692
28  1  3   0.0762  -4.857   0.11011   4.81768
29  1  3   0.0731  -7.124   0.10618   3.75592
30  1  3   0.0731  -7.127   1.87306   3.75291
31  1  3   0.0743  -6.933   1.87779   6.2501
32  1  3   0.0743  -6.93   0.11145   6.25349
33  1  3   0.0641  -9.197   0.10414   5.18934
34  1  3   0.0641  -9.201   1.87165   5.18768
35  1  3   0.0785  -9   1.87366   7.68114
36  1  3   0.0785  -8.998   0.10616   7.68197
37  1  3   0.0319  -11.266   0.1112   6.58893
38  1  3   0.0319  -11.268   1.86077   6.58598

Bonds

1  1  2  1
2  1  3  2
3  1  4  3
4  1  5  4
5  1  6  5
6  1  7  6
7  1  8  7
8  1  9  8
9  1  10  9
10  1  11  10
11  1  12  11
12  2  13  12
13  3  14  1
14  3  15  1
15  3  16  1
16  3  17  2
17  3  18  2
18  3  19  3
19  3  20  3
20  3  21  4
21  3  22  4
22  3  23  5
23  3  24  5
24  3  25  6
25  3  26  6
26  3  27  7
27  3  28  7
28  3  29  8
29  3  30  8
30  3  31  9
31  3  32  9
32  3  33  10
33  3  34  10
34  3  35  11
35  3  36  11
36  3  37  12
37  3  38  12

Angles

1  1  1  2  3
2  1  2  3  4
3  1  3  4  5
4  1  4  5  6
5  1  5  6  7
6  1  6  7  8
7  1  7  8  9
8  1  8  9  10
9  1  9  10  11
10  1  10  11  12
11  2  11  12  13
12  3  2  1  14
13  3  2  1  15
14  3  2  1  16
15  3  1  2  17
16  3  1  2  18
17  3  2  3  19
18  3  2  3  20
19  3  3  4  21
20  3  3  4  22
21  3  4  5  23
22  3  4  5  24
23  3  5  6  25
24  3  5  6  26
25  3  6  7  27
26  3  6  7  28
27  3  7  8  29
28  3  7  8  30
29  3  8  9  31
30  3  8  9  32
31  3  9  10  33
32  3  9  10  34
33  3  10  11  35
34  3  10  11  36
35  3  11  12  37
36  3  11  12  38
37  3  8  7  28
38  3  8  7  27
39  3  6  5  24
40  3  9  8  30
41  4  13  12  37
42  3  3  2  18
43  5  29  8  30
44  5  27  7  28
45  5  37  12  38
46  3  9  8  29
47  3  3  2  17
48  3  7  6  25
49  5  23  5  24
50  3  4  3  19
51  3  12  11  36
52  5  21  4  22
53  5  15  1  16
54  3  7  6  26
55  4  13  12  38
56  3  5  4  22
57  5  14  1  15
58  3  10  9  31
59  5  17  2  18
60  5  25  6  26
61  5  19  3  20
62  3  11  10  34
63  5  33  10  34
64  5  31  9  32
65  3  6  5  23
66  5  14  1  16
67  3  5  4  21
68  3  4  3  20
69  5  35  11  36
70  3  11  10  33
71  3  10  9  32
72  3  12  11  35

Dihedrals

1  1  4  3  2  1
2  1  5  4  3  2
3  1  6  5  4  3
4  1  7  6  5  4
5  1  8  7  6  5
6  1  9  8  7  6
7  1  10  9  8  7
8  1  11  10  9  8
9  1  12  11  10  9
10  2  13  12  11  10
11  3  14  1  2  3
12  3  35  11  10  33
13  3  28  7  8  9
14  4  36  11  12  13
15  3  28  7  6  25
16  3  27  7  6  26
17  3  28  7  6  26
18  3  32  9  10  11
19  3  34  10  9  31
20  3  33  10  9  32
21  3  36  11  10  33
22  3  34  10  11  12
23  3  30  8  9  10
24  3  28  7  6  5
25  3  25  6  7  8
26  3  34  10  9  32
27  3  23  5  6  7
28  3  30  8  7  28
29  3  29  8  7  27
30  3  18  2  1  15
31  3  17  2  3  4
32  3  30  8  7  27
33  3  29  8  7  28
34  3  27  7  8  9
35  3  30  8  7  6
36  3  35  11  10  9
37  3  19  3  2  1
38  3  37  12  11  10
39  3  25  6  5  23
40  3  38  12  11  36
41  3  26  6  5  4
42  3  20  3  2  1
43  3  21  4  3  19
44  3  20  3  2  18
45  3  22  4  3  20
46  3  18  2  1  14
47  3  17  2  1  15
48  3  17  2  1  16
49  3  23  5  4  21
50  3  22  4  3  2
51  3  20  3  4  5
52  3  32  9  8  30
53  3  35  11  10  34
54  3  24  5  6  7
55  3  23  5  4  3
56  3  37  12  11  35
57  3  21  4  3  2
58  3  34  10  9  8
59  3  31  9  10  11
60  3  29  8  9  10
61  3  26  6  5  24
62  3  33  10  9  31
63  3  33  10  9  8
64  3  24  5  4  3
65  3  26  6  5  23
66  3  25  6  5  24
67  3  24  5  4  22
68  3  27  7  6  25
69  3  32  9  8  7
70  3  31  9  8  29
71  3  15  1  2  3
72  3  27  7  6  5
73  3  25  6  5  4
74  3  37  12  11  36
75  3  33  10  11  12
76  3  21  4  3  20
77  3  22  4  3  19
78  3  29  8  7  6
79  3  26  6  7  8
80  3  20  3  2  17
81  3  19  3  2  18
82  3  36  11  10  34
83  3  19  3  2  17
84  3  21  4  5  6
85  3  31  9  8  7
86  3  19  3  4  5
87  3  36  11  10  9
88  3  18  2  3  4
89  3  38  12  11  10
90  3  24  5  4  21
91  3  23  5  4  22
92  4  35  11  12  13
93  3  22  4  5  6
94  3  31  9  8  30
95  3  32  9  8  29
96  3  16  1  2  3
97  3  38  12  11  35
98  3  17  2  1  14
99  3  18  2  1  16

Impropers

1  1  1  2  14  15
2  1  1  2  14  16
3  1  2  17  3  1
4  1  2  1  18  3
5  1  3  2  19  4
6  1  3  4  2  20
7  1  4  5  3  21
8  1  4  3  5  22
9  1  5  4  6  23
10  1  5  4  6  24
11  1  6  25  5  7
12  1  6  26  5  7
13  1  7  27  6  8
14  1  7  28  6  8
15  1  8  9  29  7
16  1  8  9  30  7
17  1  9  10  31  8
18  1  9  10  8  32
19  1  10  33  11  9
20  1  10  9  34  11
21  1  11  10  35  12
22  1  11  12  10  36
23  1  12  13  11  37
24  1  12  11  13  38
