LAMMPS data file Created by LigParGen - (Written by Leela S. Dodda)

      38 atoms
      37 bonds
      72 angles
      99 dihedrals
      24 impropers
 
      38 atom types
      37 bond types
      72 angle types
      99 dihedral types
      24 improper types
 
  -11.526650    38.473350 xlo xhi
    0.104140    50.104140 ylo yhi
   -1.026660    48.973340 zlo zhi

Masses

       1     12.011  
       2     12.011  
       3     12.011  
       4     12.011  
       5     12.011  
       6     12.011  
       7     12.011  
       8     12.011  
       9     12.011  
      10     12.011  
      11     12.011  
      12     12.011  
      13     32.060  
      14      1.008  
      15      1.008  
      16      1.008  
      17      1.008  
      18      1.008  
      19      1.008  
      20      1.008  
      21      1.008  
      22      1.008  
      23      1.008  
      24      1.008  
      25      1.008  
      26      1.008  
      27      1.008  
      28      1.008  
      29      1.008  
      30      1.008  
      31      1.008  
      32      1.008  
      33      1.008  
      34      1.008  
      35      1.008  
      36      1.008  
      37      1.008  
      38      1.008  

Pair Coeffs 

       1      0.066  3.5000000 
       2      0.066  3.5000000 
       3      0.066  3.5000000 
       4      0.066  3.5000000 
       5      0.066  3.5000000 
       6      0.066  3.5000000 
       7      0.066  3.5000000 
       8      0.066  3.5000000 
       9      0.066  3.5000000 
      10      0.066  3.5000000 
      11      0.066  3.5000000 
      12      0.066  3.5000000 
      13      0.355  3.5500000 
      14      0.030  2.5000000 
      15      0.030  2.5000000 
      16      0.030  2.5000000 
      17      0.030  2.5000000 
      18      0.030  2.5000000 
      19      0.030  2.5000000 
      20      0.030  2.5000000 
      21      0.030  2.5000000 
      22      0.030  2.5000000 
      23      0.030  2.5000000 
      24      0.030  2.5000000 
      25      0.030  2.5000000 
      26      0.030  2.5000000 
      27      0.030  2.5000000 
      28      0.030  2.5000000 
      29      0.030  2.5000000 
      30      0.030  2.5000000 
      31      0.030  2.5000000 
      32      0.030  2.5000000 
      33      0.030  2.5000000 
      34      0.030  2.5000000 
      35      0.030  2.5000000 
      36      0.030  2.5000000 
      37      0.030  2.5000000 
      38      0.030  2.5000000 

Bond Coeffs 

       1   268.0000     1.5290 
       2   268.0000     1.5290 
       3   268.0000     1.5290 
       4   268.0000     1.5290 
       5   268.0000     1.5290 
       6   268.0000     1.5290 
       7   268.0000     1.5290 
       8   268.0000     1.5290 
       9   268.0000     1.5290 
      10   268.0000     1.5290 
      11   268.0000     1.5290 
      12   340.0000     1.7700 
      13   340.0000     1.0900 
      14   340.0000     1.0900 
      15   340.0000     1.0900 
      16   340.0000     1.0900 
      17   340.0000     1.0900 
      18   340.0000     1.0900 
      19   340.0000     1.0900 
      20   340.0000     1.0900 
      21   340.0000     1.0900 
      22   340.0000     1.0900 
      23   340.0000     1.0900 
      24   340.0000     1.0900 
      25   340.0000     1.0900 
      26   340.0000     1.0900 
      27   340.0000     1.0900 
      28   340.0000     1.0900 
      29   340.0000     1.0900 
      30   340.0000     1.0900 
      31   340.0000     1.0900 
      32   340.0000     1.0900 
      33   340.0000     1.0900 
      34   340.0000     1.0900 
      35   340.0000     1.0900 
      36   340.0000     1.0900 
      37   340.0000     1.0900 

Angle Coeffs 

       1     58.350    112.700
       2     58.350    112.700
       3     58.350    112.700
       4     58.350    112.700
       5     58.350    112.700
       6     58.350    112.700
       7     58.350    112.700
       8     58.350    112.700
       9     58.350    112.700
      10     58.350    112.700
      11     50.000    108.600
      12     37.500    110.700
      13     37.500    110.700
      14     37.500    110.700
      15     37.500    110.700
      16     37.500    110.700
      17     37.500    110.700
      18     37.500    110.700
      19     37.500    110.700
      20     37.500    110.700
      21     37.500    110.700
      22     37.500    110.700
      23     37.500    110.700
      24     37.500    110.700
      25     37.500    110.700
      26     37.500    110.700
      27     37.500    110.700
      28     37.500    110.700
      29     37.500    110.700
      30     37.500    110.700
      31     37.500    110.700
      32     37.500    110.700
      33     37.500    110.700
      34     37.500    110.700
      35     37.500    110.700
      36     37.500    110.700
      37     37.500    110.700
      38     37.500    110.700
      39     37.500    110.700
      40     37.500    110.700
      41     35.000    109.500
      42     37.500    110.700
      43     33.000    107.800
      44     33.000    107.800
      45     33.000    107.800
      46     37.500    110.700
      47     37.500    110.700
      48     37.500    110.700
      49     33.000    107.800
      50     37.500    110.700
      51     37.500    110.700
      52     33.000    107.800
      53     33.000    107.800
      54     37.500    110.700
      55     35.000    109.500
      56     37.500    110.700
      57     33.000    107.800
      58     37.500    110.700
      59     33.000    107.800
      60     33.000    107.800
      61     33.000    107.800
      62     37.500    110.700
      63     33.000    107.800
      64     33.000    107.800
      65     37.500    110.700
      66     33.000    107.800
      67     37.500    110.700
      68     37.500    110.700
      69     33.000    107.800
      70     37.500    110.700
      71     37.500    110.700
      72     37.500    110.700

Dihedral Coeffs  

       1      1.300     -0.200      0.200      0.000 
       2      1.300     -0.200      0.200      0.000 
       3      1.300     -0.200      0.200      0.000 
       4      1.300     -0.200      0.200      0.000 
       5      1.300     -0.200      0.200      0.000 
       6      1.300     -0.200      0.200      0.000 
       7      1.300     -0.200      0.200      0.000 
       8      1.300     -0.200      0.200      0.000 
       9      1.300     -0.200      0.200      0.000 
      10      1.262     -0.198      0.465      0.000 
      11      0.000      0.000      0.300      0.000 
      12      0.000      0.000      0.300      0.000 
      13      0.000      0.000      0.300      0.000 
      14      0.000      0.000      0.452      0.000 
      15      0.000      0.000      0.300      0.000 
      16      0.000      0.000      0.300      0.000 
      17      0.000      0.000      0.300      0.000 
      18      0.000      0.000      0.300      0.000 
      19      0.000      0.000      0.300      0.000 
      20      0.000      0.000      0.300      0.000 
      21      0.000      0.000      0.300      0.000 
      22      0.000      0.000      0.300      0.000 
      23      0.000      0.000      0.300      0.000 
      24      0.000      0.000      0.300      0.000 
      25      0.000      0.000      0.300      0.000 
      26      0.000      0.000      0.300      0.000 
      27      0.000      0.000      0.300      0.000 
      28      0.000      0.000      0.300      0.000 
      29      0.000      0.000      0.300      0.000 
      30      0.000      0.000      0.300      0.000 
      31      0.000      0.000      0.300      0.000 
      32      0.000      0.000      0.300      0.000 
      33      0.000      0.000      0.300      0.000 
      34      0.000      0.000      0.300      0.000 
      35      0.000      0.000      0.300      0.000 
      36      0.000      0.000      0.300      0.000 
      37      0.000      0.000      0.300      0.000 
      38      0.000      0.000      0.300      0.000 
      39      0.000      0.000      0.300      0.000 
      40      0.000      0.000      0.300      0.000 
      41      0.000      0.000      0.300      0.000 
      42      0.000      0.000      0.300      0.000 
      43      0.000      0.000      0.300      0.000 
      44      0.000      0.000      0.300      0.000 
      45      0.000      0.000      0.300      0.000 
      46      0.000      0.000      0.300      0.000 
      47      0.000      0.000      0.300      0.000 
      48      0.000      0.000      0.300      0.000 
      49      0.000      0.000      0.300      0.000 
      50      0.000      0.000      0.300      0.000 
      51      0.000      0.000      0.300      0.000 
      52      0.000      0.000      0.300      0.000 
      53      0.000      0.000      0.300      0.000 
      54      0.000      0.000      0.300      0.000 
      55      0.000      0.000      0.300      0.000 
      56      0.000      0.000      0.300      0.000 
      57      0.000      0.000      0.300      0.000 
      58      0.000      0.000      0.300      0.000 
      59      0.000      0.000      0.300      0.000 
      60      0.000      0.000      0.300      0.000 
      61      0.000      0.000      0.300      0.000 
      62      0.000      0.000      0.300      0.000 
      63      0.000      0.000      0.300      0.000 
      64      0.000      0.000      0.300      0.000 
      65      0.000      0.000      0.300      0.000 
      66      0.000      0.000      0.300      0.000 
      67      0.000      0.000      0.300      0.000 
      68      0.000      0.000      0.300      0.000 
      69      0.000      0.000      0.300      0.000 
      70      0.000      0.000      0.300      0.000 
      71      0.000      0.000      0.300      0.000 
      72      0.000      0.000      0.300      0.000 
      73      0.000      0.000      0.300      0.000 
      74      0.000      0.000      0.300      0.000 
      75      0.000      0.000      0.300      0.000 
      76      0.000      0.000      0.300      0.000 
      77      0.000      0.000      0.300      0.000 
      78      0.000      0.000      0.300      0.000 
      79      0.000      0.000      0.300      0.000 
      80      0.000      0.000      0.300      0.000 
      81      0.000      0.000      0.300      0.000 
      82      0.000      0.000      0.300      0.000 
      83      0.000      0.000      0.300      0.000 
      84      0.000      0.000      0.300      0.000 
      85      0.000      0.000      0.300      0.000 
      86      0.000      0.000      0.300      0.000 
      87      0.000      0.000      0.300      0.000 
      88      0.000      0.000      0.300      0.000 
      89      0.000      0.000      0.300      0.000 
      90      0.000      0.000      0.300      0.000 
      91      0.000      0.000      0.300      0.000 
      92      0.000      0.000      0.452      0.000 
      93      0.000      0.000      0.300      0.000 
      94      0.000      0.000      0.300      0.000 
      95      0.000      0.000      0.300      0.000 
      96      0.000      0.000      0.300      0.000 
      97      0.000      0.000      0.300      0.000 
      98      0.000      0.000      0.300      0.000 
      99      0.000      0.000      0.300      0.000 

Improper Coeffs 

       1      0.000      -1       2 
       2      0.000      -1       2 
       3      0.000      -1       2 
       4      0.000      -1       2 
       5      0.000      -1       2 
       6      0.000      -1       2 
       7      0.000      -1       2 
       8      0.000      -1       2 
       9      0.000      -1       2 
      10      0.000      -1       2 
      11      0.000      -1       2 
      12      0.000      -1       2 
      13      0.000      -1       2 
      14      0.000      -1       2 
      15      0.000      -1       2 
      16      0.000      -1       2 
      17      0.000      -1       2 
      18      0.000      -1       2 
      19      0.000      -1       2 
      20      0.000      -1       2 
      21      0.000      -1       2 
      22      0.000      -1       2 
      23      0.000      -1       2 
      24      0.000      -1       2 

Atoms 

     1      1      1 -0.20890000    1.000  1.00000  0.00000
     2      1      2 -0.15760000   -0.520  1.00000  0.00000
     3      1      3 -0.15660000   -1.075  1.00000  1.42355
     4      1      4 -0.15730000   -2.604  0.99820  1.42355
     5      1      5 -0.15730000   -3.153  0.99640  2.85023
     6      1      6 -0.15730000   -4.682  0.99280  2.85515
     7      1      7 -0.15760000   -5.228  0.99281  4.28308
     8      1      8 -0.15800000   -6.757  0.99101  4.28963
     9      1      9 -0.15650000   -7.303  0.99283  5.71736
    10      1     10 -0.16830000   -8.831  0.98922  5.72392
    11      1     11 -0.15050000   -9.382  0.98923  7.15370
    12      1     12 -0.08580000  -10.916  0.98742  7.14877
    13      1     13 -0.89790000  -11.527  0.98967  8.87586
    14      1     14 0.06840000    1.379  1.00130 -1.02666
    15      1     15 0.06840000    1.391  0.11168  0.50630
    16      1     16 0.06840000    1.391  1.88762  0.50752
    17      1     17 0.07640000   -0.880  0.11707 -0.54074
    18      1     18 0.07640000   -0.880  1.88304 -0.54080
    19      1     19 0.07770000   -0.708  1.88349  1.96011
    20      1     20 0.07770000   -0.707  0.11722  1.96056
    21      1     21 0.07690000   -2.971  0.11516  0.88629
    22      1     22 0.07690000   -2.973  1.88128  0.88768
    23      1     23 0.07720000   -2.785  1.88009  3.38605
    24      1     24 0.07720000   -2.782  0.11366  3.38493
    25      1     25 0.07590000   -5.049  0.10840  2.32059
    26      1     26 0.07590000   -5.054  1.87452  2.31895
    27      1     27 0.07620000   -4.859  1.87699  4.81692
    28      1     28 0.07620000   -4.857  0.11011  4.81768
    29      1     29 0.07310000   -7.124  0.10618  3.75592
    30      1     30 0.07310000   -7.127  1.87306  3.75291
    31      1     31 0.07430000   -6.933  1.87779  6.25010
    32      1     32 0.07430000   -6.930  0.11145  6.25349
    33      1     33 0.06410000   -9.197  0.10414  5.18934
    34      1     34 0.06410000   -9.201  1.87165  5.18768
    35      1     35 0.07850000   -9.000  1.87366  7.68114
    36      1     36 0.07850000   -8.998  0.10616  7.68197
    37      1     37 0.03190000  -11.266  0.11120  6.58893
    38      1     38 0.03190000  -11.268  1.86077  6.58598

Bonds 

     1      1      2      1
     2      2      3      2
     3      3      4      3
     4      4      5      4
     5      5      6      5
     6      6      7      6
     7      7      8      7
     8      8      9      8
     9      9     10      9
    10     10     11     10
    11     11     12     11
    12     12     13     12
    13     13     14      1
    14     14     15      1
    15     15     16      1
    16     16     17      2
    17     17     18      2
    18     18     19      3
    19     19     20      3
    20     20     21      4
    21     21     22      4
    22     22     23      5
    23     23     24      5
    24     24     25      6
    25     25     26      6
    26     26     27      7
    27     27     28      7
    28     28     29      8
    29     29     30      8
    30     30     31      9
    31     31     32      9
    32     32     33     10
    33     33     34     10
    34     34     35     11
    35     35     36     11
    36     36     37     12
    37     37     38     12

Angles 

     1      1      1      2      3
     2      2      2      3      4
     3      3      3      4      5
     4      4      4      5      6
     5      5      5      6      7
     6      6      6      7      8
     7      7      7      8      9
     8      8      8      9     10
     9      9      9     10     11
    10     10     10     11     12
    11     11     11     12     13
    12     12      2      1     14
    13     13      2      1     15
    14     14      2      1     16
    15     15      1      2     17
    16     16      1      2     18
    17     17      2      3     19
    18     18      2      3     20
    19     19      3      4     21
    20     20      3      4     22
    21     21      4      5     23
    22     22      4      5     24
    23     23      5      6     25
    24     24      5      6     26
    25     25      6      7     27
    26     26      6      7     28
    27     27      7      8     29
    28     28      7      8     30
    29     29      8      9     31
    30     30      8      9     32
    31     31      9     10     33
    32     32      9     10     34
    33     33     10     11     35
    34     34     10     11     36
    35     35     11     12     37
    36     36     11     12     38
    37     37      8      7     28
    38     38      8      7     27
    39     39      6      5     24
    40     40      9      8     30
    41     41     13     12     37
    42     42      3      2     18
    43     43     29      8     30
    44     44     27      7     28
    45     45     37     12     38
    46     46      9      8     29
    47     47      3      2     17
    48     48      7      6     25
    49     49     23      5     24
    50     50      4      3     19
    51     51     12     11     36
    52     52     21      4     22
    53     53     15      1     16
    54     54      7      6     26
    55     55     13     12     38
    56     56      5      4     22
    57     57     14      1     15
    58     58     10      9     31
    59     59     17      2     18
    60     60     25      6     26
    61     61     19      3     20
    62     62     11     10     34
    63     63     33     10     34
    64     64     31      9     32
    65     65      6      5     23
    66     66     14      1     16
    67     67      5      4     21
    68     68      4      3     20
    69     69     35     11     36
    70     70     11     10     33
    71     71     10      9     32
    72     72     12     11     35

Dihedrals

     1      1      4      3      2      1 
     2      2      5      4      3      2 
     3      3      6      5      4      3 
     4      4      7      6      5      4 
     5      5      8      7      6      5 
     6      6      9      8      7      6 
     7      7     10      9      8      7 
     8      8     11     10      9      8 
     9      9     12     11     10      9 
    10     10     13     12     11     10 
    11     11     14      1      2      3 
    12     12     35     11     10     33 
    13     13     28      7      8      9 
    14     14     36     11     12     13 
    15     15     28      7      6     25 
    16     16     27      7      6     26 
    17     17     28      7      6     26 
    18     18     32      9     10     11 
    19     19     34     10      9     31 
    20     20     33     10      9     32 
    21     21     36     11     10     33 
    22     22     34     10     11     12 
    23     23     30      8      9     10 
    24     24     28      7      6      5 
    25     25     25      6      7      8 
    26     26     34     10      9     32 
    27     27     23      5      6      7 
    28     28     30      8      7     28 
    29     29     29      8      7     27 
    30     30     18      2      1     15 
    31     31     17      2      3      4 
    32     32     30      8      7     27 
    33     33     29      8      7     28 
    34     34     27      7      8      9 
    35     35     30      8      7      6 
    36     36     35     11     10      9 
    37     37     19      3      2      1 
    38     38     37     12     11     10 
    39     39     25      6      5     23 
    40     40     38     12     11     36 
    41     41     26      6      5      4 
    42     42     20      3      2      1 
    43     43     21      4      3     19 
    44     44     20      3      2     18 
    45     45     22      4      3     20 
    46     46     18      2      1     14 
    47     47     17      2      1     15 
    48     48     17      2      1     16 
    49     49     23      5      4     21 
    50     50     22      4      3      2 
    51     51     20      3      4      5 
    52     52     32      9      8     30 
    53     53     35     11     10     34 
    54     54     24      5      6      7 
    55     55     23      5      4      3 
    56     56     37     12     11     35 
    57     57     21      4      3      2 
    58     58     34     10      9      8 
    59     59     31      9     10     11 
    60     60     29      8      9     10 
    61     61     26      6      5     24 
    62     62     33     10      9     31 
    63     63     33     10      9      8 
    64     64     24      5      4      3 
    65     65     26      6      5     23 
    66     66     25      6      5     24 
    67     67     24      5      4     22 
    68     68     27      7      6     25 
    69     69     32      9      8      7 
    70     70     31      9      8     29 
    71     71     15      1      2      3 
    72     72     27      7      6      5 
    73     73     25      6      5      4 
    74     74     37     12     11     36 
    75     75     33     10     11     12 
    76     76     21      4      3     20 
    77     77     22      4      3     19 
    78     78     29      8      7      6 
    79     79     26      6      7      8 
    80     80     20      3      2     17 
    81     81     19      3      2     18 
    82     82     36     11     10     34 
    83     83     19      3      2     17 
    84     84     21      4      5      6 
    85     85     31      9      8      7 
    86     86     19      3      4      5 
    87     87     36     11     10      9 
    88     88     18      2      3      4 
    89     89     38     12     11     10 
    90     90     24      5      4     21 
    91     91     23      5      4     22 
    92     92     35     11     12     13 
    93     93     22      4      5      6 
    94     94     31      9      8     30 
    95     95     32      9      8     29 
    96     96     16      1      2      3 
    97     97     38     12     11     35 
    98     98     17      2      1     14 
    99     99     18      2      1     16 

Impropers

     1      1      1      2     14     15 
     2      2      1      2     14     16 
     3      3      2     17      3      1 
     4      4      2      1     18      3 
     5      5      3      2     19      4 
     6      6      3      4      2     20 
     7      7      4      5      3     21 
     8      8      4      3      5     22 
     9      9      5      4      6     23 
    10     10      5      4      6     24 
    11     11      6     25      5      7 
    12     12      6     26      5      7 
    13     13      7     27      6      8 
    14     14      7     28      6      8 
    15     15      8      9     29      7 
    16     16      8      9     30      7 
    17     17      9     10     31      8 
    18     18      9     10      8     32 
    19     19     10     33     11      9 
    20     20     10      9     34     11 
    21     21     11     10     35     12 
    22     22     11     12     10     36 
    23     23     12     13     11     37 
    24     24     12     11     13     38 

