#C6_anion

19 atoms
4 atom types

18 bonds
4 bond types

33 angles
7 angle types

42 dihedrals
5 dihedral types

11 impropers
2 improper types

-5.3362  44.6638  xlo xhi
0  50.11112  ylo yhi
-1.02722  48.97278  zlo zhi

Masses

1  12.011
2  12.011
3  15.999
4  1.008

Pair Coeffs

1  0.066  3.5
2  0.07  3.55
3  0.21  2.96
4  0.03  2.5

Bond Coeffs

1  268.0  1.529
2  317.0  1.522
3  656.0  1.25
4  340.0  1.09

Angle Coeffs

1  58.35  112.7
2  63.0  111.1
3  70.0  117.0
4  37.5  110.7
5  33.0  107.8
6  35.0  109.5
7  80.0  126.0

Dihedral Coeffs

1  1.3  -0.2  0.2  0.0
2  -2.06  -0.313  0.315  0.0
3  0.0  0.0  0.0  0.0
4  0.0  0.0  0.3  0.0
5  0.0  0.0  -0.1  0.0

Improper Coeffs

1  10.5  -1.0  2.0
2  0.0  -1.0  2.0

Atoms # full

1  1  1  -0.2072   1   1   0
2  1  1  -0.1581  -0.52   1   0
3  1  1  -0.1606  -1.082   1   1.42182
4  1  1  -0.1361  -2.611   0.9982   1.41197
5  1  1  -0.2329  -3.179   0.99998   2.82759
6  1  2   0.4284  -4.709   0.99659   2.91276
7  1  3  -0.6313  -5.336   0.99271   1.81841
8  1  3  -0.6313  -5.158   0.9996   4.09569
9  1  4   0.0593   1.378   1.0013  -1.02722
10  1  4   0.0593   1.391   0.11112   0.50526
11  1  4   0.0593   1.392   1.88721   0.50729
12  1  4   0.0735  -0.879   0.11725  -0.54205
13  1  4   0.0735  -0.879   1.88282  -0.54209
14  1  4   0.0647  -0.718   1.88415   1.95959
15  1  4   0.0647  -0.716   0.11725   1.96039
16  1  4   0.0789  -2.972   0.11478   0.87094
17  1  4   0.0789  -2.974   1.87891   0.86788
18  1  4   0.0586  -2.818   1.88629   3.36398
19  1  4   0.0586  -2.814   0.11771   3.36789

Bonds

1  1  2  1
2  1  3  2
3  1  4  3
4  1  5  4
5  2  6  5
6  3  7  6
7  3  8  6
8  4  9  1
9  4  10  1
10  4  11  1
11  4  12  2
12  4  13  2
13  4  14  3
14  4  15  3
15  4  16  4
16  4  17  4
17  4  18  5
18  4  19  5

Angles

1  1  1  2  3
2  1  2  3  4
3  1  3  4  5
4  2  4  5  6
5  3  5  6  7
6  3  5  6  8
7  4  2  1  9
8  4  2  1  10
9  4  2  1  11
10  4  1  2  12
11  4  1  2  13
12  4  2  3  14
13  4  2  3  15
14  4  3  4  16
15  4  3  4  17
16  4  4  5  18
17  4  4  5  19
18  5  12  2  13
19  6  6  5  19
20  4  5  4  16
21  5  18  5  19
22  5  16  4  17
23  5  14  3  15
24  7  7  6  8
25  4  3  2  12
26  5  10  1  11
27  4  3  2  13
28  5  9  1  10
29  5  9  1  11
30  4  4  3  14
31  4  4  3  15
32  6  6  5  18
33  4  5  4  17

Dihedrals

1  1  4  3  2  1
2  1  5  4  3  2
3  2  6  5  4  3
4  3  7  6  5  4
5  4  9  1  2  3
6  4  15  3  4  5
7  4  14  3  4  5
8  4  17  4  3  2
9  4  15  3  2  1
10  3  18  5  6  7
11  4  11  1  2  3
12  4  17  4  3  14
13  5  17  4  5  6
14  4  18  5  4  17
15  4  19  5  4  16
16  4  14  3  2  13
17  4  15  3  2  12
18  4  19  5  4  17
19  3  8  6  5  4
20  3  19  5  6  7
21  4  19  5  4  3
22  3  19  5  6  8
23  4  14  3  2  12
24  4  12  2  3  4
25  4  16  4  3  2
26  4  17  4  3  15
27  4  13  2  3  4
28  4  16  4  3  14
29  4  12  2  1  11
30  4  13  2  1  10
31  4  13  2  1  11
32  4  15  3  2  13
33  4  10  1  2  3
34  4  18  5  4  16
35  4  16  4  3  15
36  4  13  2  1  9
37  4  12  2  1  10
38  4  14  3  2  1
39  4  18  5  4  3
40  3  18  5  6  8
41  4  12  2  1  9
42  5  16  4  5  6

Impropers

1  1  6  5  7  8
2  2  1  10  9  2
3  2  1  2  11  9
4  2  2  1  3  12
5  2  2  1  3  13
6  2  3  2  4  14
7  2  3  2  4  15
8  2  4  3  5  16
9  2  4  17  3  5
10  2  5  18  4  6
11  2  5  19  4  6
