#C6_acid

20 atoms
6 atom types

19 bonds
6 bond types

34 angles
9 angle types

44 dihedrals
8 dihedral types

11 impropers
2 improper types

-5.40213  44.59787  xlo xhi
0  50.10885  ylo yhi
-1.0277  48.9723  zlo zhi

Masses

1  12.011
2  12.011
3  15.999
4  15.999
5  1.008
6  1.008

Pair Coeffs

1  0.066  3.5
2  0.07  3.55
3  0.21  2.96
4  0.17  3.12
5  0.03  2.5
6  0.0  0.0

Bond Coeffs

1  268.0  1.529
2  317.0  1.522
3  570.0  1.229
4  450.0  1.364
5  340.0  1.09
6  553.0  0.945

Angle Coeffs

1  58.35  112.7
2  63.0  111.1
3  80.0  120.4
4  70.0  108.0
5  37.5  110.7
6  35.0  113.0
7  33.0  107.8
8  35.0  109.5
9  80.0  121.0

Dihedral Coeffs

1  1.3  -0.2  0.2  0.0
2  -2.06  -0.313  0.315  0.0
3  0.0  0.0  0.0  0.0
4  0.0  0.0  0.3  0.0
5  1.5  5.5  0.0  0.0
6  0.0  0.0  -0.1  0.0
7  0.0  5.5  0.0  0.0
8  1.0  0.546  0.45  0.0

Improper Coeffs

1  10.5  -1.0  2.0
2  0.0  -1.0  2.0

Atoms # full

1  1  1  -0.2393   1   1   0
2  1  1  -0.1783  -0.52   1   0
3  1  1  -0.1789  -1.085   1   1.42089
4  1  1  -0.1704  -2.614   0.9982   1.40284
5  1  1  -0.2607  -3.193   0.99997   2.81636
6  1  2   0.51  -4.705   0.99641   2.80014
7  1  3  -0.4446  -5.402   0.99258   1.79886
8  1  4  -0.5603  -5.229   0.99953   4.04811
9  1  5   0.0822   1.377   1.0013  -1.0277
10  1  5   0.0822   1.392   0.11096   0.504
11  1  5   0.0822   1.392   1.88718   0.50727
12  1  5   0.0926  -0.878   0.11693  -0.54225
13  1  5   0.0926  -0.878   1.88306  -0.54224
14  1  5   0.0881  -0.723   1.88375   1.96035
15  1  5   0.0881  -0.721   0.11764   1.96116
16  1  5   0.1107  -2.974   0.11596   0.85916
17  1  5   0.1107  -2.976   1.87774   0.85609
18  1  5   0.1209  -2.858   1.89509   3.35203
19  1  5   0.1209  -2.854   0.10885   3.35595
20  1  6   0.4514  -4.557   1.00355   4.75574

Bonds

1  1  2  1
2  1  3  2
3  1  4  3
4  1  5  4
5  2  6  5
6  3  7  6
7  4  8  6
8  5  9  1
9  5  10  1
10  5  11  1
11  5  12  2
12  5  13  2
13  5  14  3
14  5  15  3
15  5  16  4
16  5  17  4
17  5  18  5
18  5  19  5
19  6  20  8

Angles

1  1  1  2  3
2  1  2  3  4
3  1  3  4  5
4  2  4  5  6
5  3  5  6  7
6  4  5  6  8
7  5  2  1  9
8  5  2  1  10
9  5  2  1  11
10  5  1  2  12
11  5  1  2  13
12  5  2  3  14
13  5  2  3  15
14  5  3  4  16
15  5  3  4  17
16  5  4  5  18
17  5  4  5  19
18  6  6  8  20
19  7  12  2  13
20  8  6  5  19
21  5  5  4  16
22  7  18  5  19
23  7  16  4  17
24  7  14  3  15
25  9  7  6  8
26  5  3  2  12
27  7  10  1  11
28  5  3  2  13
29  7  9  1  10
30  7  9  1  11
31  5  4  3  14
32  5  4  3  15
33  8  6  5  18
34  5  5  4  17

Dihedrals

1  1  4  3  2  1
2  1  5  4  3  2
3  2  6  5  4  3
4  3  7  6  5  4
5  4  9  1  2  3
6  5  20  8  6  5
7  4  15  3  4  5
8  4  14  3  4  5
9  4  17  4  3  2
10  4  15  3  2  1
11  3  18  5  6  7
12  4  11  1  2  3
13  4  17  4  3  14
14  6  17  4  5  6
15  4  18  5  4  17
16  7  20  8  6  7
17  4  14  3  2  13
18  4  15  3  2  12
19  4  19  5  4  16
20  8  8  6  5  4
21  3  19  5  6  7
22  4  19  5  4  3
23  3  19  5  6  8
24  4  14  3  2  12
25  4  12  2  3  4
26  4  16  4  3  2
27  4  17  4  3  15
28  4  13  2  3  4
29  4  16  4  3  14
30  4  12  2  1  11
31  4  13  2  1  10
32  4  13  2  1  11
33  4  15  3  2  13
34  4  10  1  2  3
35  4  18  5  4  16
36  4  16  4  3  15
37  4  13  2  1  9
38  4  12  2  1  10
39  4  14  3  2  1
40  4  19  5  4  17
41  4  18  5  4  3
42  3  18  5  6  8
43  4  12  2  1  9
44  6  16  4  5  6

Impropers

1  1  6  5  7  8
2  2  1  10  9  2
3  2  1  2  11  9
4  2  2  1  3  12
5  2  2  1  3  13
6  2  3  2  4  14
7  2  3  2  4  15
8  2  4  3  5  16
9  2  4  17  3  5
10  2  5  18  4  6
11  2  5  19  4  6
