LAMMPS data file Created by LigParGen - (Written by Leela S. Dodda)

      20 atoms
      19 bonds
      34 angles
      44 dihedrals
      11 impropers
 
      20 atom types
      19 bond types
      34 angle types
      44 dihedral types
      11 improper types
 
   -5.402130    44.597870 xlo xhi
    0.108850    50.108850 ylo yhi
   -1.027700    48.972300 zlo zhi

Masses

       1     12.011  
       2     12.011  
       3     12.011  
       4     12.011  
       5     12.011  
       6     12.011  
       7     15.999  
       8     15.999  
       9      1.008  
      10      1.008  
      11      1.008  
      12      1.008  
      13      1.008  
      14      1.008  
      15      1.008  
      16      1.008  
      17      1.008  
      18      1.008  
      19      1.008  
      20      1.008  

Pair Coeffs 

       1      0.066  3.5000000 
       2      0.066  3.5000000 
       3      0.066  3.5000000 
       4      0.066  3.5000000 
       5      0.066  3.5000000 
       6      0.070  3.5500000 
       7      0.210  2.9600000 
       8      0.170  3.1200000 
       9      0.030  2.5000000 
      10      0.030  2.5000000 
      11      0.030  2.5000000 
      12      0.030  2.5000000 
      13      0.030  2.5000000 
      14      0.030  2.5000000 
      15      0.030  2.5000000 
      16      0.030  2.5000000 
      17      0.030  2.5000000 
      18      0.030  2.5000000 
      19      0.030  2.5000000 
      20      0.000  0.0000000 

Bond Coeffs 

       1   268.0000     1.5290 
       2   268.0000     1.5290 
       3   268.0000     1.5290 
       4   268.0000     1.5290 
       5   317.0000     1.5220 
       6   570.0000     1.2290 
       7   450.0000     1.3640 
       8   340.0000     1.0900 
       9   340.0000     1.0900 
      10   340.0000     1.0900 
      11   340.0000     1.0900 
      12   340.0000     1.0900 
      13   340.0000     1.0900 
      14   340.0000     1.0900 
      15   340.0000     1.0900 
      16   340.0000     1.0900 
      17   340.0000     1.0900 
      18   340.0000     1.0900 
      19   553.0000     0.9450 

Angle Coeffs 

       1     58.350    112.700
       2     58.350    112.700
       3     58.350    112.700
       4     63.000    111.100
       5     80.000    120.400
       6     70.000    108.000
       7     37.500    110.700
       8     37.500    110.700
       9     37.500    110.700
      10     37.500    110.700
      11     37.500    110.700
      12     37.500    110.700
      13     37.500    110.700
      14     37.500    110.700
      15     37.500    110.700
      16     37.500    110.700
      17     37.500    110.700
      18     35.000    113.000
      19     33.000    107.800
      20     35.000    109.500
      21     37.500    110.700
      22     33.000    107.800
      23     33.000    107.800
      24     33.000    107.800
      25     80.000    121.000
      26     37.500    110.700
      27     33.000    107.800
      28     37.500    110.700
      29     33.000    107.800
      30     33.000    107.800
      31     37.500    110.700
      32     37.500    110.700
      33     35.000    109.500
      34     37.500    110.700

Dihedral Coeffs  

       1      1.300     -0.200      0.200      0.000 
       2      1.300     -0.200      0.200      0.000 
       3     -2.060     -0.313      0.315      0.000 
       4      0.000      0.000      0.000      0.000 
       5      0.000      0.000      0.300      0.000 
       6      1.500      5.500      0.000      0.000 
       7      0.000      0.000      0.300      0.000 
       8      0.000      0.000      0.300      0.000 
       9      0.000      0.000      0.300      0.000 
      10      0.000      0.000      0.300      0.000 
      11      0.000      0.000      0.000      0.000 
      12      0.000      0.000      0.300      0.000 
      13      0.000      0.000      0.300      0.000 
      14      0.000      0.000     -0.100      0.000 
      15      0.000      0.000      0.300      0.000 
      16      0.000      5.500      0.000      0.000 
      17      0.000      0.000      0.300      0.000 
      18      0.000      0.000      0.300      0.000 
      19      0.000      0.000      0.300      0.000 
      20      1.000      0.546      0.450      0.000 
      21      0.000      0.000      0.000      0.000 
      22      0.000      0.000      0.300      0.000 
      23      0.000      0.000      0.000      0.000 
      24      0.000      0.000      0.300      0.000 
      25      0.000      0.000      0.300      0.000 
      26      0.000      0.000      0.300      0.000 
      27      0.000      0.000      0.300      0.000 
      28      0.000      0.000      0.300      0.000 
      29      0.000      0.000      0.300      0.000 
      30      0.000      0.000      0.300      0.000 
      31      0.000      0.000      0.300      0.000 
      32      0.000      0.000      0.300      0.000 
      33      0.000      0.000      0.300      0.000 
      34      0.000      0.000      0.300      0.000 
      35      0.000      0.000      0.300      0.000 
      36      0.000      0.000      0.300      0.000 
      37      0.000      0.000      0.300      0.000 
      38      0.000      0.000      0.300      0.000 
      39      0.000      0.000      0.300      0.000 
      40      0.000      0.000      0.300      0.000 
      41      0.000      0.000      0.300      0.000 
      42      0.000      0.000      0.000      0.000 
      43      0.000      0.000      0.300      0.000 
      44      0.000      0.000     -0.100      0.000 

Improper Coeffs 

       1     10.500      -1       2 
       2      0.000      -1       2 
       3      0.000      -1       2 
       4      0.000      -1       2 
       5      0.000      -1       2 
       6      0.000      -1       2 
       7      0.000      -1       2 
       8      0.000      -1       2 
       9      0.000      -1       2 
      10      0.000      -1       2 
      11      0.000      -1       2 

Atoms 

     1      1      1 -0.23930000    1.000  1.00000  0.00000
     2      1      2 -0.17830000   -0.520  1.00000  0.00000
     3      1      3 -0.17890000   -1.085  1.00000  1.42089
     4      1      4 -0.17040000   -2.614  0.99820  1.40284
     5      1      5 -0.26070000   -3.193  0.99997  2.81636
     6      1      6 0.51000000   -4.705  0.99641  2.80014
     7      1      7 -0.44460000   -5.402  0.99258  1.79886
     8      1      8 -0.56030000   -5.229  0.99953  4.04811
     9      1      9 0.08220000    1.377  1.00130 -1.02770
    10      1     10 0.08220000    1.392  0.11096  0.50400
    11      1     11 0.08220000    1.392  1.88718  0.50727
    12      1     12 0.09260000   -0.878  0.11693 -0.54225
    13      1     13 0.09260000   -0.878  1.88306 -0.54224
    14      1     14 0.08810000   -0.723  1.88375  1.96035
    15      1     15 0.08810000   -0.721  0.11764  1.96116
    16      1     16 0.11070000   -2.974  0.11596  0.85916
    17      1     17 0.11070000   -2.976  1.87774  0.85609
    18      1     18 0.12090000   -2.858  1.89509  3.35203
    19      1     19 0.12090000   -2.854  0.10885  3.35595
    20      1     20 0.45140000   -4.557  1.00355  4.75574

Bonds 

     1      1      2      1
     2      2      3      2
     3      3      4      3
     4      4      5      4
     5      5      6      5
     6      6      7      6
     7      7      8      6
     8      8      9      1
     9      9     10      1
    10     10     11      1
    11     11     12      2
    12     12     13      2
    13     13     14      3
    14     14     15      3
    15     15     16      4
    16     16     17      4
    17     17     18      5
    18     18     19      5
    19     19     20      8

Angles 

     1      1      1      2      3
     2      2      2      3      4
     3      3      3      4      5
     4      4      4      5      6
     5      5      5      6      7
     6      6      5      6      8
     7      7      2      1      9
     8      8      2      1     10
     9      9      2      1     11
    10     10      1      2     12
    11     11      1      2     13
    12     12      2      3     14
    13     13      2      3     15
    14     14      3      4     16
    15     15      3      4     17
    16     16      4      5     18
    17     17      4      5     19
    18     18      6      8     20
    19     19     12      2     13
    20     20      6      5     19
    21     21      5      4     16
    22     22     18      5     19
    23     23     16      4     17
    24     24     14      3     15
    25     25      7      6      8
    26     26      3      2     12
    27     27     10      1     11
    28     28      3      2     13
    29     29      9      1     10
    30     30      9      1     11
    31     31      4      3     14
    32     32      4      3     15
    33     33      6      5     18
    34     34      5      4     17

Dihedrals

     1      1      4      3      2      1 
     2      2      5      4      3      2 
     3      3      6      5      4      3 
     4      4      7      6      5      4 
     5      5      9      1      2      3 
     6      6     20      8      6      5 
     7      7     15      3      4      5 
     8      8     14      3      4      5 
     9      9     17      4      3      2 
    10     10     15      3      2      1 
    11     11     18      5      6      7 
    12     12     11      1      2      3 
    13     13     17      4      3     14 
    14     14     17      4      5      6 
    15     15     18      5      4     17 
    16     16     20      8      6      7 
    17     17     14      3      2     13 
    18     18     15      3      2     12 
    19     19     19      5      4     16 
    20     20      8      6      5      4 
    21     21     19      5      6      7 
    22     22     19      5      4      3 
    23     23     19      5      6      8 
    24     24     14      3      2     12 
    25     25     12      2      3      4 
    26     26     16      4      3      2 
    27     27     17      4      3     15 
    28     28     13      2      3      4 
    29     29     16      4      3     14 
    30     30     12      2      1     11 
    31     31     13      2      1     10 
    32     32     13      2      1     11 
    33     33     15      3      2     13 
    34     34     10      1      2      3 
    35     35     18      5      4     16 
    36     36     16      4      3     15 
    37     37     13      2      1      9 
    38     38     12      2      1     10 
    39     39     14      3      2      1 
    40     40     19      5      4     17 
    41     41     18      5      4      3 
    42     42     18      5      6      8 
    43     43     12      2      1      9 
    44     44     16      4      5      6 

Impropers

     1      1      6      5      7      8 
     2      2      1     10      9      2 
     3      3      1      2     11      9 
     4      4      2      1      3     12 
     5      5      2      1      3     13 
     6      6      3      2      4     14 
     7      7      3      2      4     15 
     8      8      4      3      5     16 
     9      9      4     17      3      5 
    10     10      5     18      4      6 
    11     11      5     19      4      6 

