LAMMPS data file Created by LigParGen - (Written by Leela S. Dodda)

      19 atoms
      18 bonds
      33 angles
      42 dihedrals
      11 impropers
 
      19 atom types
      18 bond types
      33 angle types
      42 dihedral types
      11 improper types
 
   -5.336200    44.663800 xlo xhi
    0.111120    50.111120 ylo yhi
   -1.027220    48.972780 zlo zhi

Masses

       1     12.011  
       2     12.011  
       3     12.011  
       4     12.011  
       5     12.011  
       6     12.011  
       7     15.999  
       8     15.999  
       9      1.008  
      10      1.008  
      11      1.008  
      12      1.008  
      13      1.008  
      14      1.008  
      15      1.008  
      16      1.008  
      17      1.008  
      18      1.008  
      19      1.008  

Pair Coeffs 

       1      0.066  3.5000000 
       2      0.066  3.5000000 
       3      0.066  3.5000000 
       4      0.066  3.5000000 
       5      0.066  3.5000000 
       6      0.070  3.5500000 
       7      0.210  2.9600000 
       8      0.210  2.9600000 
       9      0.030  2.5000000 
      10      0.030  2.5000000 
      11      0.030  2.5000000 
      12      0.030  2.5000000 
      13      0.030  2.5000000 
      14      0.030  2.5000000 
      15      0.030  2.5000000 
      16      0.030  2.5000000 
      17      0.030  2.5000000 
      18      0.030  2.5000000 
      19      0.030  2.5000000 

Bond Coeffs 

       1   268.0000     1.5290 
       2   268.0000     1.5290 
       3   268.0000     1.5290 
       4   268.0000     1.5290 
       5   317.0000     1.5220 
       6   656.0000     1.2500 
       7   656.0000     1.2500 
       8   340.0000     1.0900 
       9   340.0000     1.0900 
      10   340.0000     1.0900 
      11   340.0000     1.0900 
      12   340.0000     1.0900 
      13   340.0000     1.0900 
      14   340.0000     1.0900 
      15   340.0000     1.0900 
      16   340.0000     1.0900 
      17   340.0000     1.0900 
      18   340.0000     1.0900 

Angle Coeffs 

       1     58.350    112.700
       2     58.350    112.700
       3     58.350    112.700
       4     63.000    111.100
       5     70.000    117.000
       6     70.000    117.000
       7     37.500    110.700
       8     37.500    110.700
       9     37.500    110.700
      10     37.500    110.700
      11     37.500    110.700
      12     37.500    110.700
      13     37.500    110.700
      14     37.500    110.700
      15     37.500    110.700
      16     37.500    110.700
      17     37.500    110.700
      18     33.000    107.800
      19     35.000    109.500
      20     37.500    110.700
      21     33.000    107.800
      22     33.000    107.800
      23     33.000    107.800
      24     80.000    126.000
      25     37.500    110.700
      26     33.000    107.800
      27     37.500    110.700
      28     33.000    107.800
      29     33.000    107.800
      30     37.500    110.700
      31     37.500    110.700
      32     35.000    109.500
      33     37.500    110.700

Dihedral Coeffs  

       1      1.300     -0.200      0.200      0.000 
       2      1.300     -0.200      0.200      0.000 
       3     -2.060     -0.313      0.315      0.000 
       4      0.000      0.000      0.000      0.000 
       5      0.000      0.000      0.300      0.000 
       6      0.000      0.000      0.300      0.000 
       7      0.000      0.000      0.300      0.000 
       8      0.000      0.000      0.300      0.000 
       9      0.000      0.000      0.300      0.000 
      10      0.000      0.000      0.000      0.000 
      11      0.000      0.000      0.300      0.000 
      12      0.000      0.000      0.300      0.000 
      13      0.000      0.000     -0.100      0.000 
      14      0.000      0.000      0.300      0.000 
      15      0.000      0.000      0.300      0.000 
      16      0.000      0.000      0.300      0.000 
      17      0.000      0.000      0.300      0.000 
      18      0.000      0.000      0.300      0.000 
      19      0.000      0.000      0.000      0.000 
      20      0.000      0.000      0.000      0.000 
      21      0.000      0.000      0.300      0.000 
      22      0.000      0.000      0.000      0.000 
      23      0.000      0.000      0.300      0.000 
      24      0.000      0.000      0.300      0.000 
      25      0.000      0.000      0.300      0.000 
      26      0.000      0.000      0.300      0.000 
      27      0.000      0.000      0.300      0.000 
      28      0.000      0.000      0.300      0.000 
      29      0.000      0.000      0.300      0.000 
      30      0.000      0.000      0.300      0.000 
      31      0.000      0.000      0.300      0.000 
      32      0.000      0.000      0.300      0.000 
      33      0.000      0.000      0.300      0.000 
      34      0.000      0.000      0.300      0.000 
      35      0.000      0.000      0.300      0.000 
      36      0.000      0.000      0.300      0.000 
      37      0.000      0.000      0.300      0.000 
      38      0.000      0.000      0.300      0.000 
      39      0.000      0.000      0.300      0.000 
      40      0.000      0.000      0.000      0.000 
      41      0.000      0.000      0.300      0.000 
      42      0.000      0.000     -0.100      0.000 

Improper Coeffs 

       1     10.500      -1       2 
       2      0.000      -1       2 
       3      0.000      -1       2 
       4      0.000      -1       2 
       5      0.000      -1       2 
       6      0.000      -1       2 
       7      0.000      -1       2 
       8      0.000      -1       2 
       9      0.000      -1       2 
      10      0.000      -1       2 
      11      0.000      -1       2 

Atoms 

     1      1      1 -0.20720000    1.000  1.00000  0.00000
     2      1      2 -0.15810000   -0.520  1.00000  0.00000
     3      1      3 -0.16060000   -1.082  1.00000  1.42182
     4      1      4 -0.13610000   -2.611  0.99820  1.41197
     5      1      5 -0.23290000   -3.179  0.99998  2.82759
     6      1      6 0.42840000   -4.709  0.99659  2.91276
     7      1      7 -0.63130000   -5.336  0.99271  1.81841
     8      1      8 -0.63130000   -5.158  0.99960  4.09569
     9      1      9 0.05930000    1.378  1.00130 -1.02722
    10      1     10 0.05930000    1.391  0.11112  0.50526
    11      1     11 0.05930000    1.392  1.88721  0.50729
    12      1     12 0.07350000   -0.879  0.11725 -0.54205
    13      1     13 0.07350000   -0.879  1.88282 -0.54209
    14      1     14 0.06470000   -0.718  1.88415  1.95959
    15      1     15 0.06470000   -0.716  0.11725  1.96039
    16      1     16 0.07890000   -2.972  0.11478  0.87094
    17      1     17 0.07890000   -2.974  1.87891  0.86788
    18      1     18 0.05860000   -2.818  1.88629  3.36398
    19      1     19 0.05860000   -2.814  0.11771  3.36789

Bonds 

     1      1      2      1
     2      2      3      2
     3      3      4      3
     4      4      5      4
     5      5      6      5
     6      6      7      6
     7      7      8      6
     8      8      9      1
     9      9     10      1
    10     10     11      1
    11     11     12      2
    12     12     13      2
    13     13     14      3
    14     14     15      3
    15     15     16      4
    16     16     17      4
    17     17     18      5
    18     18     19      5

Angles 

     1      1      1      2      3
     2      2      2      3      4
     3      3      3      4      5
     4      4      4      5      6
     5      5      5      6      7
     6      6      5      6      8
     7      7      2      1      9
     8      8      2      1     10
     9      9      2      1     11
    10     10      1      2     12
    11     11      1      2     13
    12     12      2      3     14
    13     13      2      3     15
    14     14      3      4     16
    15     15      3      4     17
    16     16      4      5     18
    17     17      4      5     19
    18     18     12      2     13
    19     19      6      5     19
    20     20      5      4     16
    21     21     18      5     19
    22     22     16      4     17
    23     23     14      3     15
    24     24      7      6      8
    25     25      3      2     12
    26     26     10      1     11
    27     27      3      2     13
    28     28      9      1     10
    29     29      9      1     11
    30     30      4      3     14
    31     31      4      3     15
    32     32      6      5     18
    33     33      5      4     17

Dihedrals

     1      1      4      3      2      1 
     2      2      5      4      3      2 
     3      3      6      5      4      3 
     4      4      7      6      5      4 
     5      5      9      1      2      3 
     6      6     15      3      4      5 
     7      7     14      3      4      5 
     8      8     17      4      3      2 
     9      9     15      3      2      1 
    10     10     18      5      6      7 
    11     11     11      1      2      3 
    12     12     17      4      3     14 
    13     13     17      4      5      6 
    14     14     18      5      4     17 
    15     15     19      5      4     16 
    16     16     14      3      2     13 
    17     17     15      3      2     12 
    18     18     19      5      4     17 
    19     19      8      6      5      4 
    20     20     19      5      6      7 
    21     21     19      5      4      3 
    22     22     19      5      6      8 
    23     23     14      3      2     12 
    24     24     12      2      3      4 
    25     25     16      4      3      2 
    26     26     17      4      3     15 
    27     27     13      2      3      4 
    28     28     16      4      3     14 
    29     29     12      2      1     11 
    30     30     13      2      1     10 
    31     31     13      2      1     11 
    32     32     15      3      2     13 
    33     33     10      1      2      3 
    34     34     18      5      4     16 
    35     35     16      4      3     15 
    36     36     13      2      1      9 
    37     37     12      2      1     10 
    38     38     14      3      2      1 
    39     39     18      5      4      3 
    40     40     18      5      6      8 
    41     41     12      2      1      9 
    42     42     16      4      5      6 

Impropers

     1      1      6      5      7      8 
     2      2      1     10      9      2 
     3      3      1      2     11      9 
     4      4      2      1      3     12 
     5      5      2      1      3     13 
     6      6      3      2      4     14 
     7      7      3      2      4     15 
     8      8      4      3      5     16 
     9      9      4     17      3      5 
    10     10      5     18      4      6 
    11     11      5     19      4      6 

