#C20_anion

62 atoms
3 atom types

61 bonds
3 bond types

120 angles
5 angle types

171 dihedrals
4 dihedral types

40 impropers
1 improper types

-19.7018  30.2982  xlo xhi
0  50.11083  ylo yhi
-1.02633  48.97367  zlo zhi

Masses

1  12.011
2  32.06
3  1.008

Pair Coeffs

1  0.066  3.5
2  0.355  3.55
3  0.03  2.5

Bond Coeffs

1  268.0  1.529
2  340.0  1.77
3  340.0  1.09

Angle Coeffs

1  58.35  112.7
2  50.0  108.6
3  37.5  110.7
4  33.0  107.8
5  35.0  109.5

Dihedral Coeffs

1  1.3  -0.2  0.2  0.0
2  1.262  -0.198  0.465  0.0
3  0.0  0.0  0.3  0.0
4  0.0  0.0  0.452  0.0

Improper Coeffs

1  0.0  -1.0  2.0

Atoms # full

1  1  1  -0.2092   1   1   0
2  1  1  -0.1576  -0.518   1   0
3  1  1  -0.1569  -1.068   1   1.4227
4  1  1  -0.1577  -2.595   1.0018   1.4227
5  1  1  -0.1577  -3.135   0.99998   2.8497
6  1  1  -0.1576  -4.66   1.00358   2.85296
7  1  1  -0.1578  -5.194   1.00355   4.28074
8  1  1  -0.1578  -6.718   1.00894   4.28401
9  1  1  -0.1579  -7.251   1.01071   5.71097
10  1  1  -0.1581  -8.775   1.01791   5.71098
11  1  1  -0.1579  -9.31   1.02149   7.13739
12  1  1  -0.158  -10.833   1.02688   7.13578
13  1  1  -0.1581  -11.368   1.02866   8.56197
14  1  1  -0.1579  -12.892   1.03585   8.56198
15  1  1  -0.1582  -13.428   1.03944   9.98835
16  1  1  -0.1584  -14.953   1.04484   9.98999
17  1  1  -0.1569  -15.492   1.05024   11.41715
18  1  1  -0.1685  -17.018   1.05385   11.42207
19  1  1  -0.1504  -17.562   1.06108   12.85249
20  1  1  -0.086  -19.095   1.06286   12.84923
21  1  2  -0.8981  -19.702   1.07371   14.57697
22  1  3   0.07   1.379   1.0013  -1.02633
23  1  3   0.07   1.389   0.11083   0.50678
24  1  3   0.07   1.39   1.88672   0.50972
25  1  3   0.0773  -0.882   0.11795  -0.5402
26  1  3   0.0773  -0.88   1.88502  -0.53917
27  1  3   0.0784  -0.7   1.8816   1.96126
28  1  3   0.0784  -0.702   0.11581   1.9593
29  1  3   0.0782  -2.966   0.11966   0.88718
30  1  3   0.0782  -2.964   1.88611   0.88914
31  1  3   0.0784  -2.763   1.88124   3.38612
32  1  3   0.0784  -2.768   0.1147   3.38227
33  1  3   0.0785  -5.033   0.12119   2.31881
34  1  3   0.0785  -5.029   1.88858   2.32047
35  1  3   0.0786  -4.82   1.88528   4.81556
36  1  3   0.0786  -4.826   0.1184   4.81353
37  1  3   0.0784  -7.092   0.12718   3.74954
38  1  3   0.0784  -7.086   1.89415   3.75066
39  1  3   0.0785  -6.877   1.89247   6.24508
40  1  3   0.0785  -6.885   0.12532   6.24506
41  1  3   0.078  -9.149   0.13607   5.1764
42  1  3   0.078  -9.14   1.90236   5.17515
43  1  3   0.0783  -8.935   1.90312   7.67098
44  1  3   0.0783  -8.943   0.13598   7.67121
45  1  3   0.0776  -11.205   0.14506   6.6001
46  1  3   0.0776  -11.199   1.91202   6.60128
47  1  3   0.0777  -10.992   1.91005   9.09584
48  1  3   0.0777  -11   0.14322   9.09489
49  1  3   0.0763  -13.265   0.15375   8.02725
50  1  3   0.0763  -13.256   1.92065   8.02594
51  1  3   0.0766  -13.054   1.92255   10.52016
52  1  3   0.0766  -13.06   0.15598   10.52354
53  1  3   0.0734  -15.325   0.16171   9.45596
54  1  3   0.0734  -15.318   1.92867   9.45261
55  1  3   0.0746  -15.118   1.93396   11.94815
56  1  3   0.0746  -15.121   0.1674   11.95238
57  1  3   0.0642  -17.388   0.16874   10.88995
58  1  3   0.0642  -17.385   1.93594   10.88278
59  1  3   0.0785  -17.176   1.94684   13.37464
60  1  3   0.0785  -17.178   0.17928   13.38278
61  1  3   0.0318  -19.446   0.18481   12.2932
62  1  3   0.0318  -19.444   1.93511   12.28294

Bonds

1  1  2  1
2  1  3  2
3  1  4  3
4  1  5  4
5  1  6  5
6  1  7  6
7  1  8  7
8  1  9  8
9  1  10  9
10  1  11  10
11  1  12  11
12  1  13  12
13  1  14  13
14  1  15  14
15  1  16  15
16  1  17  16
17  1  18  17
18  1  19  18
19  1  20  19
20  2  21  20
21  3  22  1
22  3  23  1
23  3  24  1
24  3  25  2
25  3  26  2
26  3  27  3
27  3  28  3
28  3  29  4
29  3  30  4
30  3  31  5
31  3  32  5
32  3  33  6
33  3  34  6
34  3  35  7
35  3  36  7
36  3  37  8
37  3  38  8
38  3  39  9
39  3  40  9
40  3  41  10
41  3  42  10
42  3  43  11
43  3  44  11
44  3  45  12
45  3  46  12
46  3  47  13
47  3  48  13
48  3  49  14
49  3  50  14
50  3  51  15
51  3  52  15
52  3  53  16
53  3  54  16
54  3  55  17
55  3  56  17
56  3  57  18
57  3  58  18
58  3  59  19
59  3  60  19
60  3  61  20
61  3  62  20

Angles

1  1  1  2  3
2  1  2  3  4
3  1  3  4  5
4  1  4  5  6
5  1  5  6  7
6  1  6  7  8
7  1  7  8  9
8  1  8  9  10
9  1  9  10  11
10  1  10  11  12
11  1  11  12  13
12  1  12  13  14
13  1  13  14  15
14  1  14  15  16
15  1  15  16  17
16  1  16  17  18
17  1  17  18  19
18  1  18  19  20
19  2  19  20  21
20  3  2  1  22
21  3  2  1  23
22  3  2  1  24
23  3  1  2  25
24  3  1  2  26
25  3  2  3  27
26  3  2  3  28
27  3  3  4  29
28  3  3  4  30
29  3  4  5  31
30  3  4  5  32
31  3  5  6  33
32  3  5  6  34
33  3  6  7  35
34  3  6  7  36
35  3  7  8  37
36  3  7  8  38
37  3  8  9  39
38  3  8  9  40
39  3  9  10  41
40  3  9  10  42
41  3  10  11  43
42  3  10  11  44
43  3  11  12  45
44  3  11  12  46
45  3  12  13  47
46  3  12  13  48
47  3  13  14  49
48  3  13  14  50
49  3  14  15  51
50  3  14  15  52
51  3  15  16  53
52  3  15  16  54
53  3  16  17  55
54  3  16  17  56
55  3  17  18  57
56  3  17  18  58
57  3  18  19  59
58  3  18  19  60
59  3  19  20  61
60  3  19  20  62
61  3  18  17  56
62  3  18  17  55
63  3  3  2  26
64  3  10  9  39
65  4  33  6  34
66  4  45  12  46
67  4  59  19  60
68  3  15  14  50
69  4  47  13  48
70  4  27  3  28
71  4  61  20  62
72  4  57  18  58
73  4  22  1  24
74  4  29  4  30
75  4  39  9  40
76  3  12  11  44
77  3  19  18  57
78  3  6  5  32
79  3  8  7  36
80  3  14  13  48
81  3  3  2  25
82  4  37  8  38
83  4  53  16  54
84  5  21  20  61
85  4  23  1  24
86  3  9  8  37
87  4  31  5  32
88  3  13  12  45
89  3  17  16  53
90  3  4  3  28
91  5  21  20  62
92  4  25  2  26
93  3  14  13  47
94  3  8  7  35
95  3  4  3  27
96  3  13  12  46
97  3  7  6  34
98  3  11  10  41
99  3  6  5  31
100  4  43  11  44
101  4  55  17  56
102  4  51  15  52
103  3  20  19  59
104  4  35  7  36
105  3  5  4  29
106  3  15  14  49
107  4  41  10  42
108  3  10  9  40
109  3  5  4  30
110  4  49  14  50
111  4  22  1  23
112  3  16  15  51
113  3  20  19  60
114  3  11  10  42
115  3  12  11  43
116  3  9  8  38
117  3  7  6  33
118  3  17  16  54
119  3  19  18  58
120  3  16  15  52

Dihedrals

1  1  4  3  2  1
2  1  5  4  3  2
3  1  6  5  4  3
4  1  7  6  5  4
5  1  8  7  6  5
6  1  9  8  7  6
7  1  10  9  8  7
8  1  11  10  9  8
9  1  12  11  10  9
10  1  13  12  11  10
11  1  14  13  12  11
12  1  15  14  13  12
13  1  16  15  14  13
14  1  17  16  15  14
15  1  18  17  16  15
16  1  19  18  17  16
17  1  20  19  18  17
18  2  21  20  19  18
19  3  22  1  2  3
20  3  27  3  4  5
21  3  45  12  11  10
22  3  48  13  12  45
23  3  58  18  17  56
24  3  30  4  3  2
25  3  42  10  9  40
26  3  35  7  8  9
27  3  41  10  11  12
28  3  61  20  19  60
29  3  62  20  19  59
30  3  38  8  7  6
31  3  44  11  10  9
32  3  56  17  16  15
33  3  32  5  4  3
34  3  30  4  3  28
35  3  26  2  1  23
36  3  25  2  1  24
37  3  60  19  18  57
38  3  59  19  18  58
39  3  23  1  2  3
40  3  39  9  8  38
41  3  31  5  6  7
42  3  29  4  3  28
43  3  34  6  5  4
44  4  60  19  20  21
45  3  41  10  9  8
46  3  53  16  17  18
47  3  33  6  5  32
48  3  35  7  6  5
49  3  61  20  19  59
50  3  50  14  13  47
51  3  49  14  13  48
52  3  44  11  10  42
53  3  59  19  18  57
54  3  54  16  17  18
55  3  28  3  4  5
56  3  26  2  1  24
57  3  38  8  9  10
58  3  57  18  19  20
59  3  26  2  3  4
60  3  43  11  10  41
61  3  33  6  7  8
62  3  47  13  12  46
63  3  51  15  14  49
64  3  49  14  15  16
65  3  52  15  14  13
66  3  28  3  2  25
67  3  27  3  2  26
68  3  37  8  7  6
69  3  34  6  5  31
70  3  31  5  4  29
71  3  46  12  11  10
72  3  35  7  6  34
73  3  36  7  6  33
74  3  48  13  12  46
75  3  33  6  5  31
76  3  51  15  16  17
77  3  52  15  16  17
78  3  47  13  14  15
79  3  50  14  13  12
80  3  57  18  17  55
81  3  29  4  3  2
82  3  55  17  16  53
83  3  51  15  14  50
84  3  43  11  10  9
85  3  45  12  11  43
86  3  39  9  8  7
87  3  53  16  15  51
88  3  45  12  11  44
89  3  46  12  11  43
90  3  47  13  12  45
91  3  56  17  16  53
92  3  55  17  16  15
93  3  32  5  6  7
94  3  50  14  13  48
95  4  59  19  20  21
96  3  24  1  2  3
97  3  49  14  13  47
98  3  43  11  12  13
99  3  37  8  7  35
100  3  49  14  13  12
101  3  56  17  18  19
102  3  51  15  14  13
103  3  60  19  18  17
104  3  41  10  9  39
105  3  46  12  13  14
106  3  54  16  15  51
107  3  53  16  15  52
108  3  27  3  2  1
109  3  29  4  5  6
110  3  62  20  19  60
111  3  31  5  4  3
112  3  43  11  10  42
113  3  52  15  14  49
114  3  40  9  10  11
115  3  33  6  5  4
116  3  44  11  10  41
117  3  32  5  4  29
118  3  31  5  4  30
119  3  40  9  8  38
120  3  32  5  4  30
121  3  57  18  17  16
122  3  26  2  1  22
123  3  48  13  14  15
124  3  40  9  8  37
125  3  54  16  15  14
126  3  60  19  18  58
127  3  57  18  17  56
128  3  58  18  17  55
129  3  28  3  2  26
130  3  25  2  1  23
131  3  36  7  8  9
132  3  55  17  16  54
133  3  36  7  6  5
134  3  30  4  3  27
135  3  39  9  10  11
136  3  42  10  9  8
137  3  36  7  6  34
138  3  53  16  15  14
139  3  25  2  1  22
140  3  45  12  13  14
141  3  46  12  11  44
142  3  47  13  12  11
143  3  54  16  15  52
144  3  48  13  12  11
145  3  34  6  5  32
146  3  37  8  7  36
147  3  29  4  3  27
148  3  52  15  14  50
149  3  39  9  8  37
150  3  42  10  9  39
151  3  41  10  9  40
152  3  56  17  16  54
153  3  42  10  11  12
154  3  55  17  18  19
155  3  30  4  5  6
156  3  58  18  17  16
157  3  25  2  3  4
158  3  34  6  7  8
159  3  28  3  2  1
160  3  50  14  15  16
161  3  62  20  19  18
162  3  38  8  7  36
163  3  58  18  19  20
164  3  61  20  19  18
165  3  38  8  7  35
166  3  27  3  2  25
167  3  40  9  8  7
168  3  37  8  9  10
169  3  44  11  12  13
170  3  35  7  6  33
171  3  59  19  18  17

Impropers

1  1  1  2  22  23
2  1  1  2  22  24
3  1  2  25  3  1
4  1  2  1  26  3
5  1  3  2  27  4
6  1  3  4  2  28
7  1  4  5  3  29
8  1  4  3  5  30
9  1  5  4  6  31
10  1  5  4  6  32
11  1  6  33  5  7
12  1  6  34  5  7
13  1  7  35  6  8
14  1  7  36  6  8
15  1  8  9  37  7
16  1  8  9  38  7
17  1  9  10  39  8
18  1  9  10  8  40
19  1  10  41  11  9
20  1  10  9  42  11
21  1  11  10  43  12
22  1  11  12  10  44
23  1  12  13  11  45
24  1  12  11  13  46
25  1  13  12  14  47
26  1  13  12  14  48
27  1  14  49  13  15
28  1  14  50  13  15
29  1  15  51  14  16
30  1  15  52  14  16
31  1  16  17  53  15
32  1  16  17  54  15
33  1  17  18  55  16
34  1  17  18  16  56
35  1  18  57  19  17
36  1  18  17  58  19
37  1  19  18  59  20
38  1  19  20  18  60
39  1  20  21  19  61
40  1  20  19  21  62
