LAMMPS data file Created by LigParGen - (Written by Leela S. Dodda)

      62 atoms
      61 bonds
     120 angles
     171 dihedrals
      40 impropers
 
      62 atom types
      61 bond types
     120 angle types
     171 dihedral types
      40 improper types
 
  -19.701800    30.298200 xlo xhi
    0.110830    50.110830 ylo yhi
   -1.026330    48.973670 zlo zhi

Masses

       1     12.011  
       2     12.011  
       3     12.011  
       4     12.011  
       5     12.011  
       6     12.011  
       7     12.011  
       8     12.011  
       9     12.011  
      10     12.011  
      11     12.011  
      12     12.011  
      13     12.011  
      14     12.011  
      15     12.011  
      16     12.011  
      17     12.011  
      18     12.011  
      19     12.011  
      20     12.011  
      21     32.060  
      22      1.008  
      23      1.008  
      24      1.008  
      25      1.008  
      26      1.008  
      27      1.008  
      28      1.008  
      29      1.008  
      30      1.008  
      31      1.008  
      32      1.008  
      33      1.008  
      34      1.008  
      35      1.008  
      36      1.008  
      37      1.008  
      38      1.008  
      39      1.008  
      40      1.008  
      41      1.008  
      42      1.008  
      43      1.008  
      44      1.008  
      45      1.008  
      46      1.008  
      47      1.008  
      48      1.008  
      49      1.008  
      50      1.008  
      51      1.008  
      52      1.008  
      53      1.008  
      54      1.008  
      55      1.008  
      56      1.008  
      57      1.008  
      58      1.008  
      59      1.008  
      60      1.008  
      61      1.008  
      62      1.008  

Pair Coeffs 

       1      0.066  3.5000000 
       2      0.066  3.5000000 
       3      0.066  3.5000000 
       4      0.066  3.5000000 
       5      0.066  3.5000000 
       6      0.066  3.5000000 
       7      0.066  3.5000000 
       8      0.066  3.5000000 
       9      0.066  3.5000000 
      10      0.066  3.5000000 
      11      0.066  3.5000000 
      12      0.066  3.5000000 
      13      0.066  3.5000000 
      14      0.066  3.5000000 
      15      0.066  3.5000000 
      16      0.066  3.5000000 
      17      0.066  3.5000000 
      18      0.066  3.5000000 
      19      0.066  3.5000000 
      20      0.066  3.5000000 
      21      0.355  3.5500000 
      22      0.030  2.5000000 
      23      0.030  2.5000000 
      24      0.030  2.5000000 
      25      0.030  2.5000000 
      26      0.030  2.5000000 
      27      0.030  2.5000000 
      28      0.030  2.5000000 
      29      0.030  2.5000000 
      30      0.030  2.5000000 
      31      0.030  2.5000000 
      32      0.030  2.5000000 
      33      0.030  2.5000000 
      34      0.030  2.5000000 
      35      0.030  2.5000000 
      36      0.030  2.5000000 
      37      0.030  2.5000000 
      38      0.030  2.5000000 
      39      0.030  2.5000000 
      40      0.030  2.5000000 
      41      0.030  2.5000000 
      42      0.030  2.5000000 
      43      0.030  2.5000000 
      44      0.030  2.5000000 
      45      0.030  2.5000000 
      46      0.030  2.5000000 
      47      0.030  2.5000000 
      48      0.030  2.5000000 
      49      0.030  2.5000000 
      50      0.030  2.5000000 
      51      0.030  2.5000000 
      52      0.030  2.5000000 
      53      0.030  2.5000000 
      54      0.030  2.5000000 
      55      0.030  2.5000000 
      56      0.030  2.5000000 
      57      0.030  2.5000000 
      58      0.030  2.5000000 
      59      0.030  2.5000000 
      60      0.030  2.5000000 
      61      0.030  2.5000000 
      62      0.030  2.5000000 

Bond Coeffs 

       1   268.0000     1.5290 
       2   268.0000     1.5290 
       3   268.0000     1.5290 
       4   268.0000     1.5290 
       5   268.0000     1.5290 
       6   268.0000     1.5290 
       7   268.0000     1.5290 
       8   268.0000     1.5290 
       9   268.0000     1.5290 
      10   268.0000     1.5290 
      11   268.0000     1.5290 
      12   268.0000     1.5290 
      13   268.0000     1.5290 
      14   268.0000     1.5290 
      15   268.0000     1.5290 
      16   268.0000     1.5290 
      17   268.0000     1.5290 
      18   268.0000     1.5290 
      19   268.0000     1.5290 
      20   340.0000     1.7700 
      21   340.0000     1.0900 
      22   340.0000     1.0900 
      23   340.0000     1.0900 
      24   340.0000     1.0900 
      25   340.0000     1.0900 
      26   340.0000     1.0900 
      27   340.0000     1.0900 
      28   340.0000     1.0900 
      29   340.0000     1.0900 
      30   340.0000     1.0900 
      31   340.0000     1.0900 
      32   340.0000     1.0900 
      33   340.0000     1.0900 
      34   340.0000     1.0900 
      35   340.0000     1.0900 
      36   340.0000     1.0900 
      37   340.0000     1.0900 
      38   340.0000     1.0900 
      39   340.0000     1.0900 
      40   340.0000     1.0900 
      41   340.0000     1.0900 
      42   340.0000     1.0900 
      43   340.0000     1.0900 
      44   340.0000     1.0900 
      45   340.0000     1.0900 
      46   340.0000     1.0900 
      47   340.0000     1.0900 
      48   340.0000     1.0900 
      49   340.0000     1.0900 
      50   340.0000     1.0900 
      51   340.0000     1.0900 
      52   340.0000     1.0900 
      53   340.0000     1.0900 
      54   340.0000     1.0900 
      55   340.0000     1.0900 
      56   340.0000     1.0900 
      57   340.0000     1.0900 
      58   340.0000     1.0900 
      59   340.0000     1.0900 
      60   340.0000     1.0900 
      61   340.0000     1.0900 

Angle Coeffs 

       1     58.350    112.700
       2     58.350    112.700
       3     58.350    112.700
       4     58.350    112.700
       5     58.350    112.700
       6     58.350    112.700
       7     58.350    112.700
       8     58.350    112.700
       9     58.350    112.700
      10     58.350    112.700
      11     58.350    112.700
      12     58.350    112.700
      13     58.350    112.700
      14     58.350    112.700
      15     58.350    112.700
      16     58.350    112.700
      17     58.350    112.700
      18     58.350    112.700
      19     50.000    108.600
      20     37.500    110.700
      21     37.500    110.700
      22     37.500    110.700
      23     37.500    110.700
      24     37.500    110.700
      25     37.500    110.700
      26     37.500    110.700
      27     37.500    110.700
      28     37.500    110.700
      29     37.500    110.700
      30     37.500    110.700
      31     37.500    110.700
      32     37.500    110.700
      33     37.500    110.700
      34     37.500    110.700
      35     37.500    110.700
      36     37.500    110.700
      37     37.500    110.700
      38     37.500    110.700
      39     37.500    110.700
      40     37.500    110.700
      41     37.500    110.700
      42     37.500    110.700
      43     37.500    110.700
      44     37.500    110.700
      45     37.500    110.700
      46     37.500    110.700
      47     37.500    110.700
      48     37.500    110.700
      49     37.500    110.700
      50     37.500    110.700
      51     37.500    110.700
      52     37.500    110.700
      53     37.500    110.700
      54     37.500    110.700
      55     37.500    110.700
      56     37.500    110.700
      57     37.500    110.700
      58     37.500    110.700
      59     37.500    110.700
      60     37.500    110.700
      61     37.500    110.700
      62     37.500    110.700
      63     37.500    110.700
      64     37.500    110.700
      65     33.000    107.800
      66     33.000    107.800
      67     33.000    107.800
      68     37.500    110.700
      69     33.000    107.800
      70     33.000    107.800
      71     33.000    107.800
      72     33.000    107.800
      73     33.000    107.800
      74     33.000    107.800
      75     33.000    107.800
      76     37.500    110.700
      77     37.500    110.700
      78     37.500    110.700
      79     37.500    110.700
      80     37.500    110.700
      81     37.500    110.700
      82     33.000    107.800
      83     33.000    107.800
      84     35.000    109.500
      85     33.000    107.800
      86     37.500    110.700
      87     33.000    107.800
      88     37.500    110.700
      89     37.500    110.700
      90     37.500    110.700
      91     35.000    109.500
      92     33.000    107.800
      93     37.500    110.700
      94     37.500    110.700
      95     37.500    110.700
      96     37.500    110.700
      97     37.500    110.700
      98     37.500    110.700
      99     37.500    110.700
     100     33.000    107.800
     101     33.000    107.800
     102     33.000    107.800
     103     37.500    110.700
     104     33.000    107.800
     105     37.500    110.700
     106     37.500    110.700
     107     33.000    107.800
     108     37.500    110.700
     109     37.500    110.700
     110     33.000    107.800
     111     33.000    107.800
     112     37.500    110.700
     113     37.500    110.700
     114     37.500    110.700
     115     37.500    110.700
     116     37.500    110.700
     117     37.500    110.700
     118     37.500    110.700
     119     37.500    110.700
     120     37.500    110.700

Dihedral Coeffs  

       1      1.300     -0.200      0.200      0.000 
       2      1.300     -0.200      0.200      0.000 
       3      1.300     -0.200      0.200      0.000 
       4      1.300     -0.200      0.200      0.000 
       5      1.300     -0.200      0.200      0.000 
       6      1.300     -0.200      0.200      0.000 
       7      1.300     -0.200      0.200      0.000 
       8      1.300     -0.200      0.200      0.000 
       9      1.300     -0.200      0.200      0.000 
      10      1.300     -0.200      0.200      0.000 
      11      1.300     -0.200      0.200      0.000 
      12      1.300     -0.200      0.200      0.000 
      13      1.300     -0.200      0.200      0.000 
      14      1.300     -0.200      0.200      0.000 
      15      1.300     -0.200      0.200      0.000 
      16      1.300     -0.200      0.200      0.000 
      17      1.300     -0.200      0.200      0.000 
      18      1.262     -0.198      0.465      0.000 
      19      0.000      0.000      0.300      0.000 
      20      0.000      0.000      0.300      0.000 
      21      0.000      0.000      0.300      0.000 
      22      0.000      0.000      0.300      0.000 
      23      0.000      0.000      0.300      0.000 
      24      0.000      0.000      0.300      0.000 
      25      0.000      0.000      0.300      0.000 
      26      0.000      0.000      0.300      0.000 
      27      0.000      0.000      0.300      0.000 
      28      0.000      0.000      0.300      0.000 
      29      0.000      0.000      0.300      0.000 
      30      0.000      0.000      0.300      0.000 
      31      0.000      0.000      0.300      0.000 
      32      0.000      0.000      0.300      0.000 
      33      0.000      0.000      0.300      0.000 
      34      0.000      0.000      0.300      0.000 
      35      0.000      0.000      0.300      0.000 
      36      0.000      0.000      0.300      0.000 
      37      0.000      0.000      0.300      0.000 
      38      0.000      0.000      0.300      0.000 
      39      0.000      0.000      0.300      0.000 
      40      0.000      0.000      0.300      0.000 
      41      0.000      0.000      0.300      0.000 
      42      0.000      0.000      0.300      0.000 
      43      0.000      0.000      0.300      0.000 
      44      0.000      0.000      0.452      0.000 
      45      0.000      0.000      0.300      0.000 
      46      0.000      0.000      0.300      0.000 
      47      0.000      0.000      0.300      0.000 
      48      0.000      0.000      0.300      0.000 
      49      0.000      0.000      0.300      0.000 
      50      0.000      0.000      0.300      0.000 
      51      0.000      0.000      0.300      0.000 
      52      0.000      0.000      0.300      0.000 
      53      0.000      0.000      0.300      0.000 
      54      0.000      0.000      0.300      0.000 
      55      0.000      0.000      0.300      0.000 
      56      0.000      0.000      0.300      0.000 
      57      0.000      0.000      0.300      0.000 
      58      0.000      0.000      0.300      0.000 
      59      0.000      0.000      0.300      0.000 
      60      0.000      0.000      0.300      0.000 
      61      0.000      0.000      0.300      0.000 
      62      0.000      0.000      0.300      0.000 
      63      0.000      0.000      0.300      0.000 
      64      0.000      0.000      0.300      0.000 
      65      0.000      0.000      0.300      0.000 
      66      0.000      0.000      0.300      0.000 
      67      0.000      0.000      0.300      0.000 
      68      0.000      0.000      0.300      0.000 
      69      0.000      0.000      0.300      0.000 
      70      0.000      0.000      0.300      0.000 
      71      0.000      0.000      0.300      0.000 
      72      0.000      0.000      0.300      0.000 
      73      0.000      0.000      0.300      0.000 
      74      0.000      0.000      0.300      0.000 
      75      0.000      0.000      0.300      0.000 
      76      0.000      0.000      0.300      0.000 
      77      0.000      0.000      0.300      0.000 
      78      0.000      0.000      0.300      0.000 
      79      0.000      0.000      0.300      0.000 
      80      0.000      0.000      0.300      0.000 
      81      0.000      0.000      0.300      0.000 
      82      0.000      0.000      0.300      0.000 
      83      0.000      0.000      0.300      0.000 
      84      0.000      0.000      0.300      0.000 
      85      0.000      0.000      0.300      0.000 
      86      0.000      0.000      0.300      0.000 
      87      0.000      0.000      0.300      0.000 
      88      0.000      0.000      0.300      0.000 
      89      0.000      0.000      0.300      0.000 
      90      0.000      0.000      0.300      0.000 
      91      0.000      0.000      0.300      0.000 
      92      0.000      0.000      0.300      0.000 
      93      0.000      0.000      0.300      0.000 
      94      0.000      0.000      0.300      0.000 
      95      0.000      0.000      0.452      0.000 
      96      0.000      0.000      0.300      0.000 
      97      0.000      0.000      0.300      0.000 
      98      0.000      0.000      0.300      0.000 
      99      0.000      0.000      0.300      0.000 
     100      0.000      0.000      0.300      0.000 
     101      0.000      0.000      0.300      0.000 
     102      0.000      0.000      0.300      0.000 
     103      0.000      0.000      0.300      0.000 
     104      0.000      0.000      0.300      0.000 
     105      0.000      0.000      0.300      0.000 
     106      0.000      0.000      0.300      0.000 
     107      0.000      0.000      0.300      0.000 
     108      0.000      0.000      0.300      0.000 
     109      0.000      0.000      0.300      0.000 
     110      0.000      0.000      0.300      0.000 
     111      0.000      0.000      0.300      0.000 
     112      0.000      0.000      0.300      0.000 
     113      0.000      0.000      0.300      0.000 
     114      0.000      0.000      0.300      0.000 
     115      0.000      0.000      0.300      0.000 
     116      0.000      0.000      0.300      0.000 
     117      0.000      0.000      0.300      0.000 
     118      0.000      0.000      0.300      0.000 
     119      0.000      0.000      0.300      0.000 
     120      0.000      0.000      0.300      0.000 
     121      0.000      0.000      0.300      0.000 
     122      0.000      0.000      0.300      0.000 
     123      0.000      0.000      0.300      0.000 
     124      0.000      0.000      0.300      0.000 
     125      0.000      0.000      0.300      0.000 
     126      0.000      0.000      0.300      0.000 
     127      0.000      0.000      0.300      0.000 
     128      0.000      0.000      0.300      0.000 
     129      0.000      0.000      0.300      0.000 
     130      0.000      0.000      0.300      0.000 
     131      0.000      0.000      0.300      0.000 
     132      0.000      0.000      0.300      0.000 
     133      0.000      0.000      0.300      0.000 
     134      0.000      0.000      0.300      0.000 
     135      0.000      0.000      0.300      0.000 
     136      0.000      0.000      0.300      0.000 
     137      0.000      0.000      0.300      0.000 
     138      0.000      0.000      0.300      0.000 
     139      0.000      0.000      0.300      0.000 
     140      0.000      0.000      0.300      0.000 
     141      0.000      0.000      0.300      0.000 
     142      0.000      0.000      0.300      0.000 
     143      0.000      0.000      0.300      0.000 
     144      0.000      0.000      0.300      0.000 
     145      0.000      0.000      0.300      0.000 
     146      0.000      0.000      0.300      0.000 
     147      0.000      0.000      0.300      0.000 
     148      0.000      0.000      0.300      0.000 
     149      0.000      0.000      0.300      0.000 
     150      0.000      0.000      0.300      0.000 
     151      0.000      0.000      0.300      0.000 
     152      0.000      0.000      0.300      0.000 
     153      0.000      0.000      0.300      0.000 
     154      0.000      0.000      0.300      0.000 
     155      0.000      0.000      0.300      0.000 
     156      0.000      0.000      0.300      0.000 
     157      0.000      0.000      0.300      0.000 
     158      0.000      0.000      0.300      0.000 
     159      0.000      0.000      0.300      0.000 
     160      0.000      0.000      0.300      0.000 
     161      0.000      0.000      0.300      0.000 
     162      0.000      0.000      0.300      0.000 
     163      0.000      0.000      0.300      0.000 
     164      0.000      0.000      0.300      0.000 
     165      0.000      0.000      0.300      0.000 
     166      0.000      0.000      0.300      0.000 
     167      0.000      0.000      0.300      0.000 
     168      0.000      0.000      0.300      0.000 
     169      0.000      0.000      0.300      0.000 
     170      0.000      0.000      0.300      0.000 
     171      0.000      0.000      0.300      0.000 

Improper Coeffs 

       1      0.000      -1       2 
       2      0.000      -1       2 
       3      0.000      -1       2 
       4      0.000      -1       2 
       5      0.000      -1       2 
       6      0.000      -1       2 
       7      0.000      -1       2 
       8      0.000      -1       2 
       9      0.000      -1       2 
      10      0.000      -1       2 
      11      0.000      -1       2 
      12      0.000      -1       2 
      13      0.000      -1       2 
      14      0.000      -1       2 
      15      0.000      -1       2 
      16      0.000      -1       2 
      17      0.000      -1       2 
      18      0.000      -1       2 
      19      0.000      -1       2 
      20      0.000      -1       2 
      21      0.000      -1       2 
      22      0.000      -1       2 
      23      0.000      -1       2 
      24      0.000      -1       2 
      25      0.000      -1       2 
      26      0.000      -1       2 
      27      0.000      -1       2 
      28      0.000      -1       2 
      29      0.000      -1       2 
      30      0.000      -1       2 
      31      0.000      -1       2 
      32      0.000      -1       2 
      33      0.000      -1       2 
      34      0.000      -1       2 
      35      0.000      -1       2 
      36      0.000      -1       2 
      37      0.000      -1       2 
      38      0.000      -1       2 
      39      0.000      -1       2 
      40      0.000      -1       2 

Atoms 

     1      1      1 -0.20920000    1.000  1.00000  0.00000
     2      1      2 -0.15760000   -0.518  1.00000  0.00000
     3      1      3 -0.15690000   -1.068  1.00000  1.42270
     4      1      4 -0.15770000   -2.595  1.00180  1.42270
     5      1      5 -0.15770000   -3.135  0.99998  2.84970
     6      1      6 -0.15760000   -4.660  1.00358  2.85296
     7      1      7 -0.15780000   -5.194  1.00355  4.28074
     8      1      8 -0.15780000   -6.718  1.00894  4.28401
     9      1      9 -0.15790000   -7.251  1.01071  5.71097
    10      1     10 -0.15810000   -8.775  1.01791  5.71098
    11      1     11 -0.15790000   -9.310  1.02149  7.13739
    12      1     12 -0.15800000  -10.833  1.02688  7.13578
    13      1     13 -0.15810000  -11.368  1.02866  8.56197
    14      1     14 -0.15790000  -12.892  1.03585  8.56198
    15      1     15 -0.15820000  -13.428  1.03944  9.98835
    16      1     16 -0.15840000  -14.953  1.04484  9.98999
    17      1     17 -0.15690000  -15.492  1.05024 11.41715
    18      1     18 -0.16850000  -17.018  1.05385 11.42207
    19      1     19 -0.15040000  -17.562  1.06108 12.85249
    20      1     20 -0.08600000  -19.095  1.06286 12.84923
    21      1     21 -0.89810000  -19.702  1.07371 14.57697
    22      1     22 0.07000000    1.379  1.00130 -1.02633
    23      1     23 0.07000000    1.389  0.11083  0.50678
    24      1     24 0.07000000    1.390  1.88672  0.50972
    25      1     25 0.07730000   -0.882  0.11795 -0.54020
    26      1     26 0.07730000   -0.880  1.88502 -0.53917
    27      1     27 0.07840000   -0.700  1.88160  1.96126
    28      1     28 0.07840000   -0.702  0.11581  1.95930
    29      1     29 0.07820000   -2.966  0.11966  0.88718
    30      1     30 0.07820000   -2.964  1.88611  0.88914
    31      1     31 0.07840000   -2.763  1.88124  3.38612
    32      1     32 0.07840000   -2.768  0.11470  3.38227
    33      1     33 0.07850000   -5.033  0.12119  2.31881
    34      1     34 0.07850000   -5.029  1.88858  2.32047
    35      1     35 0.07860000   -4.820  1.88528  4.81556
    36      1     36 0.07860000   -4.826  0.11840  4.81353
    37      1     37 0.07840000   -7.092  0.12718  3.74954
    38      1     38 0.07840000   -7.086  1.89415  3.75066
    39      1     39 0.07850000   -6.877  1.89247  6.24508
    40      1     40 0.07850000   -6.885  0.12532  6.24506
    41      1     41 0.07800000   -9.149  0.13607  5.17640
    42      1     42 0.07800000   -9.140  1.90236  5.17515
    43      1     43 0.07830000   -8.935  1.90312  7.67098
    44      1     44 0.07830000   -8.943  0.13598  7.67121
    45      1     45 0.07760000  -11.205  0.14506  6.60010
    46      1     46 0.07760000  -11.199  1.91202  6.60128
    47      1     47 0.07770000  -10.992  1.91005  9.09584
    48      1     48 0.07770000  -11.000  0.14322  9.09489
    49      1     49 0.07630000  -13.265  0.15375  8.02725
    50      1     50 0.07630000  -13.256  1.92065  8.02594
    51      1     51 0.07660000  -13.054  1.92255 10.52016
    52      1     52 0.07660000  -13.060  0.15598 10.52354
    53      1     53 0.07340000  -15.325  0.16171  9.45596
    54      1     54 0.07340000  -15.318  1.92867  9.45261
    55      1     55 0.07460000  -15.118  1.93396 11.94815
    56      1     56 0.07460000  -15.121  0.16740 11.95238
    57      1     57 0.06420000  -17.388  0.16874 10.88995
    58      1     58 0.06420000  -17.385  1.93594 10.88278
    59      1     59 0.07850000  -17.176  1.94684 13.37464
    60      1     60 0.07850000  -17.178  0.17928 13.38278
    61      1     61 0.03180000  -19.446  0.18481 12.29320
    62      1     62 0.03180000  -19.444  1.93511 12.28294

Bonds 

     1      1      2      1
     2      2      3      2
     3      3      4      3
     4      4      5      4
     5      5      6      5
     6      6      7      6
     7      7      8      7
     8      8      9      8
     9      9     10      9
    10     10     11     10
    11     11     12     11
    12     12     13     12
    13     13     14     13
    14     14     15     14
    15     15     16     15
    16     16     17     16
    17     17     18     17
    18     18     19     18
    19     19     20     19
    20     20     21     20
    21     21     22      1
    22     22     23      1
    23     23     24      1
    24     24     25      2
    25     25     26      2
    26     26     27      3
    27     27     28      3
    28     28     29      4
    29     29     30      4
    30     30     31      5
    31     31     32      5
    32     32     33      6
    33     33     34      6
    34     34     35      7
    35     35     36      7
    36     36     37      8
    37     37     38      8
    38     38     39      9
    39     39     40      9
    40     40     41     10
    41     41     42     10
    42     42     43     11
    43     43     44     11
    44     44     45     12
    45     45     46     12
    46     46     47     13
    47     47     48     13
    48     48     49     14
    49     49     50     14
    50     50     51     15
    51     51     52     15
    52     52     53     16
    53     53     54     16
    54     54     55     17
    55     55     56     17
    56     56     57     18
    57     57     58     18
    58     58     59     19
    59     59     60     19
    60     60     61     20
    61     61     62     20

Angles 

     1      1      1      2      3
     2      2      2      3      4
     3      3      3      4      5
     4      4      4      5      6
     5      5      5      6      7
     6      6      6      7      8
     7      7      7      8      9
     8      8      8      9     10
     9      9      9     10     11
    10     10     10     11     12
    11     11     11     12     13
    12     12     12     13     14
    13     13     13     14     15
    14     14     14     15     16
    15     15     15     16     17
    16     16     16     17     18
    17     17     17     18     19
    18     18     18     19     20
    19     19     19     20     21
    20     20      2      1     22
    21     21      2      1     23
    22     22      2      1     24
    23     23      1      2     25
    24     24      1      2     26
    25     25      2      3     27
    26     26      2      3     28
    27     27      3      4     29
    28     28      3      4     30
    29     29      4      5     31
    30     30      4      5     32
    31     31      5      6     33
    32     32      5      6     34
    33     33      6      7     35
    34     34      6      7     36
    35     35      7      8     37
    36     36      7      8     38
    37     37      8      9     39
    38     38      8      9     40
    39     39      9     10     41
    40     40      9     10     42
    41     41     10     11     43
    42     42     10     11     44
    43     43     11     12     45
    44     44     11     12     46
    45     45     12     13     47
    46     46     12     13     48
    47     47     13     14     49
    48     48     13     14     50
    49     49     14     15     51
    50     50     14     15     52
    51     51     15     16     53
    52     52     15     16     54
    53     53     16     17     55
    54     54     16     17     56
    55     55     17     18     57
    56     56     17     18     58
    57     57     18     19     59
    58     58     18     19     60
    59     59     19     20     61
    60     60     19     20     62
    61     61     18     17     56
    62     62     18     17     55
    63     63      3      2     26
    64     64     10      9     39
    65     65     33      6     34
    66     66     45     12     46
    67     67     59     19     60
    68     68     15     14     50
    69     69     47     13     48
    70     70     27      3     28
    71     71     61     20     62
    72     72     57     18     58
    73     73     22      1     24
    74     74     29      4     30
    75     75     39      9     40
    76     76     12     11     44
    77     77     19     18     57
    78     78      6      5     32
    79     79      8      7     36
    80     80     14     13     48
    81     81      3      2     25
    82     82     37      8     38
    83     83     53     16     54
    84     84     21     20     61
    85     85     23      1     24
    86     86      9      8     37
    87     87     31      5     32
    88     88     13     12     45
    89     89     17     16     53
    90     90      4      3     28
    91     91     21     20     62
    92     92     25      2     26
    93     93     14     13     47
    94     94      8      7     35
    95     95      4      3     27
    96     96     13     12     46
    97     97      7      6     34
    98     98     11     10     41
    99     99      6      5     31
   100    100     43     11     44
   101    101     55     17     56
   102    102     51     15     52
   103    103     20     19     59
   104    104     35      7     36
   105    105      5      4     29
   106    106     15     14     49
   107    107     41     10     42
   108    108     10      9     40
   109    109      5      4     30
   110    110     49     14     50
   111    111     22      1     23
   112    112     16     15     51
   113    113     20     19     60
   114    114     11     10     42
   115    115     12     11     43
   116    116      9      8     38
   117    117      7      6     33
   118    118     17     16     54
   119    119     19     18     58
   120    120     16     15     52

Dihedrals

     1      1      4      3      2      1 
     2      2      5      4      3      2 
     3      3      6      5      4      3 
     4      4      7      6      5      4 