#C20_thiol

63 atoms
4 atom types

62 bonds
4 bond types

121 angles
6 angle types

174 dihedrals
6 dihedral types

40 impropers
1 improper types

-19.705  30.295  xlo xhi
-0.16585  49.83415  ylo yhi
-1.02692  48.97308  zlo zhi

Masses

1  12.011
2  32.06
3  1.008
4  1.008

Pair Coeffs

1  0.066  3.5
2  0.425  3.6
3  0.03  2.5
4  0.0  0.0

Bond Coeffs

1  268.0  1.529
2  222.0  1.81
3  340.0  1.09
4  274.0  1.336

Angle Coeffs

1  58.35  112.7
2  50.0  108.6
3  37.5  110.7
4  44.0  96.0
5  33.0  107.8
6  35.0  109.5

Dihedral Coeffs

1  1.3  -0.2  0.2  0.0
2  1.262  -0.198  0.465  0.0
3  0.0  0.0  0.3  0.0
4  -0.759  -0.282  0.68  0.0
5  0.0  0.0  0.452  0.0
6  0.0  0.0  0.48  0.0

Improper Coeffs

1  0.0  -1.0  2.0

Atoms # full

1  1  1  -0.2389   1   1   0
2  1  1  -0.1795  -0.52   1   0
3  1  1  -0.1784  -1.07   1   1.42429
4  1  1  -0.1797  -2.595   0.9982   1.42592
5  1  1  -0.1795  -3.137   1.00001   2.8523
6  1  1  -0.1794  -4.662   1.00002   2.8572
7  1  1  -0.1797  -5.196   1.00003   4.28557
8  1  1  -0.1797  -6.721   1.00184   4.29209
9  1  1  -0.1797  -7.253   1.00366   5.72032
10  1  1  -0.1798  -8.777   1.00366   5.72522
11  1  1  -0.1796  -9.311   1.00367   7.15267
12  1  1  -0.1796  -10.835   1.00187   7.15594
13  1  1  -0.1796  -11.37   1.00368   8.58274
14  1  1  -0.1795  -12.894   1.00008   8.58601
15  1  1  -0.1796  -13.43   1.00009   10.01399
16  1  1  -0.1792  -14.955   0.99829   10.02216
17  1  1  -0.1787  -15.49   1.0001   11.45128
18  1  1  -0.1803  -17.016   0.99651   11.46273
19  1  1  -0.1843  -17.552   0.99652   12.89465
20  1  1   0.0122  -19.077   0.99112   12.90119
21  1  2  -0.4411  -19.705   0.98901   14.60376
22  1  3   0.0807   1.378   0.9987  -1.02692
23  1  3   0.0807   1.391   0.11302   0.50851
24  1  3   0.0807   1.39   1.88866   0.5065
25  1  3   0.0884  -0.881   0.11669  -0.53955
26  1  3   0.0884  -0.88   1.88318  -0.53947
27  1  3   0.0896  -0.703   1.88381   1.96027
28  1  3   0.0896  -0.702   0.11738   1.96157
29  1  3   0.0894  -2.967   0.11582   0.8911
30  1  3   0.0894  -2.966   1.88279   0.89073
31  1  3   0.0896  -2.768   1.88403   3.38611
32  1  3   0.0896  -2.767   0.11699   3.38742
33  1  3   0.0898  -5.034   0.11635   2.32429
34  1  3   0.0898  -5.034   1.88372   2.32427
35  1  3   0.0898  -4.824   1.88248   4.81993
36  1  3   0.0898  -4.826   0.11618   4.81919
37  1  3   0.0898  -7.094   0.11871   3.75922
38  1  3   0.0898  -7.092   1.88494   3.75778
39  1  3   0.0899  -6.881   1.88733   6.2527
40  1  3   0.0899  -6.881   0.1205   6.25355
41  1  3   0.0899  -9.148   0.12023   5.19104
42  1  3   0.0899  -9.148   1.88709   5.19103
43  1  3   0.09  -8.94   1.88779   7.68528
44  1  3   0.09  -8.938   0.12085   7.68611
45  1  3   0.09  -11.204   0.11702   6.62283
46  1  3   0.09  -11.207   1.88365   6.62003
47  1  3   0.0901  -11.001   1.88924   9.1143
48  1  3   0.0901  -10.997   0.12225   9.11806
49  1  3   0.0901  -13.263   0.11566   8.05244
50  1  3   0.0901  -13.267   1.88235   8.05053
51  1  3   0.0903  -13.058   1.88412   10.54653
52  1  3   0.0903  -13.057   0.11689   10.5469
53  1  3   0.0904  -15.325   0.11385   9.48907
54  1  3   0.0904  -15.327   1.88015   9.48597
55  1  3   0.0915  -15.118   1.88524   11.98177
56  1  3   0.0915  -15.114   0.11909   11.98554
57  1  3   0.0917  -17.385   0.11161   10.92943
58  1  3   0.0917  -17.39   1.87829   10.92811
59  1  3   0.1018  -17.174   1.88286   13.41955
60  1  3   0.1018  -17.168   0.1133   13.42061
61  1  3   0.126  -19.459   0.10308   12.38789
62  1  3   0.126  -19.465   1.87633   12.38778
63  1  4   0.1454  -19.133  -0.16585   14.97548

Bonds

1  1  2  1
2  1  3  2
3  1  4  3
4  1  5  4
5  1  6  5
6  1  7  6
7  1  8  7
8  1  9  8
9  1  10  9
10  1  11  10
11  1  12  11
12  1  13  12
13  1  14  13
14  1  15  14
15  1  16  15
16  1  17  16
17  1  18  17
18  1  19  18
19  1  20  19
20  2  21  20
21  3  22  1
22  3  23  1
23  3  24  1
24  3  25  2
25  3  26  2
26  3  27  3
27  3  28  3
28  3  29  4
29  3  30  4
30  3  31  5
31  3  32  5
32  3  33  6
33  3  34  6
34  3  35  7
35  3  36  7
36  3  37  8
37  3  38  8
38  3  39  9
39  3  40  9
40  3  41  10
41  3  42  10
42  3  43  11
43  3  44  11
44  3  45  12
45  3  46  12
46  3  47  13
47  3  48  13
48  3  49  14
49  3  50  14
50  3  51  15
51  3  52  15
52  3  53  16
53  3  54  16
54  3  55  17
55  3  56  17
56  3  57  18
57  3  58  18
58  3  59  19
59  3  60  19
60  3  61  20
61  3  62  20
62  4  63  21

Angles

1  1  1  2  3
2  1  2  3  4
3  1  3  4  5
4  1  4  5  6
5  1  5  6  7
6  1  6  7  8
7  1  7  8  9
8  1  8  9  10
9  1  9  10  11
10  1  10  11  12
11  1  11  12  13
12  1  12  13  14
13  1  13  14  15
14  1  14  15  16
15  1  15  16  17
16  1  16  17  18
17  1  17  18  19
18  1  18  19  20
19  2  19  20  21
20  3  2  1  22
21  3  2  1  23
22  3  2  1  24
23  3  1  2  25
24  3  1  2  26
25  3  2  3  27
26  3  2  3  28
27  3  3  4  29
28  3  3  4  30
29  3  4  5  31
30  3  4  5  32
31  3  5  6  33
32  3  5  6  34
33  3  6  7  35
34  3  6  7  36
35  3  7  8  37
36  3  7  8  38
37  3  8  9  39
38  3  8  9  40
39  3  9  10  41
40  3  9  10  42
41  3  10  11  43
42  3  10  11  44
43  3  11  12  45
44  3  11  12  46
45  3  12  13  47
46  3  12  13  48
47  3  13  14  49
48  3  13  14  50
49  3  14  15  51
50  3  14  15  52
51  3  15  16  53
52  3  15  16  54
53  3  16  17  55
54  3  16  17  56
55  3  17  18  57
56  3  17  18  58
57  3  18  19  59
58  3  18  19  60
59  3  19  20  61
60  3  19  20  62
61  4  20  21  63
62  3  18  17  56
63  3  18  17  55
64  3  3  2  26
65  3  10  9  39
66  5  33  6  34
67  5  45  12  46
68  5  59  19  60
69  3  15  14  50
70  5  47  13  48
71  5  27  3  28
72  5  61  20  62
73  5  57  18  58
74  5  22  1  24
75  5  29  4  30
76  5  39  9  40
77  3  12  11  44
78  3  19  18  57
79  3  6  5  32
80  3  8  7  36
81  3  14  13  48
82  3  3  2  25
83  5  37  8  38
84  5  53  16  54
85  6  21  20  61
86  5  23  1  24
87  3  9  8  37
88  5  31  5  32
89  3  13  12  45
90  3  17  16  53
91  3  4  3  28
92  6  21  20  62
93  5  25  2  26
94  3  14  13  47
95  3  8  7  35
96  3  4  3  27
97  3  13  12  46
98  3  7  6  34
99  3  11  10  41
100  3  6  5  31
101  5  43  11  44
102  5  55  17  56
103  5  51  15  52
104  3  20  19  59
105  5  35  7  36
106  3  5  4  29
107  3  15  14  49
108  5  41  10  42
109  3  10  9  40
110  3  5  4  30
111  5  49  14  50
112  5  22  1  23
113  3  16  15  51
114  3  20  19  60
115  3  11  10  42
116  3  12  11  43
117  3  9  8  38
118  3  7  6  33
119  3  17  16  54
120  3  19  18  58
121  3  16  15  52

Dihedrals

1  1  4  3  2  1
2  1  5  4  3  2
3  1  6  5  4  3
4  1  7  6  5  4
5  1  8  7  6  5
6  1  9  8  7  6
7  1  10  9  8  7
8  1  11  10  9  8
9  1  12  11  10  9
10  1  13  12  11  10
11  1  14  13  12  11
12  1  15  14  13  12
13  1  16  15  14  13
14  1  17  16  15  14
15  1  18  17  16  15
16  1  19  18  17  16
17  1  20  19  18  17
18  2  21  20  19  18
19  3  22  1  2  3
20  4  63  21  20  19
21  3  27  3  4  5
22  3  45  12  11  10
23  3  48  13  12  45
24  3  58  18  17  56
25  3  30  4  3  2
26  3  35  7  8  9
27  3  41  10  11  12
28  3  61  20  19  60
29  3  62  20  19  59
30  3  38  8  7  6
31  3  44  11  10  9
32  3  56  17  16  15
33  3  32  5  4  3
34  3  30  4  3  28
35  3  26  2  1  23
36  3  25  2  1  24
37  3  60  19  18  57
38  3  59  19  18  58
39  3  23  1  2  3
40  3  39  9  8  38
41  3  31  5  6  7
42  3  29  4  3  28
43  3  34  6  5  4
44  5  60  19  20  21
45  3  41  10  9  8
46  3  53  16  17  18
47  3  33  6  5  32
48  3  35  7  6  5
49  3  61  20  19  59
50  3  50  14  13  47
51  3  49  14  13  48
52  3  44  11  10  42
53  3  59  19  18  57
54  3  54  16  17  18
55  3  28  3  4  5
56  3  26  2  1  24
57  3  38  8  9  10
58  3  57  18  19  20
59  3  26  2  3  4
60  3  43  11  10  41
61  3  33  6  7  8
62  6  63  21  20  62
63  3  47  13  12  46
64  3  51  15  14  49
65  3  49  14  15  16
66  3  52  15  14  13
67  3  28  3  2  25
68  3  27  3  2  26
69  3  37  8  7  6
70  3  34  6  5  31
71  3  31  5  4  29
72  3  46  12  11  10
73  3  35  7  6  34
74  3  36  7  6  33
75  3  48  13  12  46
76  3  33  6  5  31
77  3  51  15  16  17
78  3  52  15  16  17
79  3  47  13  14  15
80  3  50  14  13  12
81  3  57  18  17  55
82  3  29  4  3  2
83  3  55  17  16  53
84  3  51  15  14  50
85  3  43  11  10  9
86  3  45  12  11  43
87  3  39  9  8  7
88  3  53  16  15  51
89  3  45  12  11  44
90  3  46  12  11  43
91  3  47  13  12  45
92  3  56  17  16  53
93  3  55  17  16  15
94  3  32  5  6  7
95  3  50  14  13  48
96  5  59  19  20  21
97  3  24  1  2  3
98  3  49  14  13  47
99  3  43  11  12  13
100  3  37  8  7  35
101  3  49  14  13  12
102  3  56  17  18  19
103  3  51  15  14  13
104  3  42  10  9  40
105  3  60  19  18  17
106  3  41  10  9  39
107  3  46  12  13  14
108  3  54  16  15  51
109  3  53  16  15  52
110  3  27  3  2  1
111  3  29  4  5  6
112  3  62  20  19  60
113  3  31  5  4  3
114  3  43  11  10  42
115  3  52  15  14  49
116  3  40  9  10  11
117  3  33  6  5  4
118  3  44  11  10  41
119  3  32  5  4  29
120  3  31  5  4  30
121  3  40  9  8  38
122  3  32  5  4  30
123  3  57  18  17  16
124  6  63  21  20  61
125  3  26  2  1  22
126  3  48  13  14  15
127  3  40  9  8  37
128  3  54  16  15  14
129  3  60  19  18  58
130  3  57  18  17  56
131  3  58  18  17  55
132  3  28  3  2  26
133  3  25  2  1  23
134  3  36  7  8  9
135  3  55  17  16  54
136  3  36  7  6  5
137  3  30  4  3  27
138  3  39  9  10  11
139  3  42  10  9  8
140  3  36  7  6  34
141  3  53  16  15  14
142  3  25  2  1  22
143  3  45  12  13  14
144  3  46  12  11  44
145  3  47  13  12  11
146  3  54  16  15  52
147  3  48  13  12  11
148  3  34  6  5  32
149  3  37  8  7  36
150  3  29  4  3  27
151  3  52  15  14  50
152  3  39  9  8  37
153  3  42  10  9  39
154  3  41  10  9  40
155  3  56  17  16  54
156  3  42  10  11  12
157  3  55  17  18  19
158  3  30  4  5  6
159  3  58  18  17  16
160  3  25  2  3  4
161  3  34  6  7  8
162  3  28  3  2  1
163  3  50  14  15  16
164  3  62  20  19  18
165  3  38  8  7  36
166  3  58  18  19  20
167  3  61  20  19  18
168  3  38  8  7  35
169  3  27  3  2  25
170  3  40  9  8  7
171  3  37  8  9  10
172  3  44  11  12  13
173  3  35  7  6  33
174  3  59  19  18  17

Impropers

1  1  1  2  22  23
2  1  1  2  22  24
3  1  2  25  3  1
4  1  2  1  26  3
5  1  3  2  27  4
6  1  3  4  2  28
7  1  4  5  3  29
8  1  4  3  5  30
9  1  5  4  6  31
10  1  5  4  6  32
11  1  6  33  5  7
12  1  6  34  5  7
13  1  7  35  6  8
14  1  7  36  6  8
15  1  8  9  37  7
16  1  8  9  38  7
17  1  9  10  39  8
18  1  9  10  8  40
19  1  10  41  11  9
20  1  10  9  42  11
21  1  11  10  43  12
22  1  11  12  10  44
23  1  12  13  11  45
24  1  12  11  13  46
25  1  13  12  14  47
26  1  13  12  14  48
27  1  14  49  13  15
28  1  14  50  13  15
29  1  15  51  14  16
30  1  15  52  14  16
31  1  16  17  53  15
32  1  16  17  54  15
33  1  17  18  55  16
34  1  17  18  16  56
35  1  18  57  19  17
36  1  18  17  58  19
37  1  19  18  59  20
38  1  19  20  18  60
39  1  20  21  19  61
40  1  20  19  21  62
