#slvnt_ipa

12 atoms
4 atom types

11 bonds
4 bond types

19 angles
6 angle types

21 dihedrals
4 dihedral types

6 impropers
1 improper types

-1.789  1.789  xlo xhi
-1.52957  1.52957  ylo yhi
-1.773735  1.773735  zlo zhi

Masses

1  12.011
2  15.999
3  1.008
4  1.008

Pair Coeffs

1  0.066  3.5
2  0.17  3.12
3  0.03  2.5
4  0.0  0.0

Bond Coeffs

1  268.0  1.529
2  320.0  1.41
3  340.0  1.09
4  553.0  0.945

Angle Coeffs

1  50.0  109.5
2  58.35  112.7
3  37.5  110.7
4  55.0  108.5
5  33.0  107.8
6  35.0  109.5

Dihedral Coeffs

1  0.0  0.0  0.468  0.0
2  -0.356  -0.174  0.492  0.0
3  0.0  0.0  0.3  0.0
4  0.0  0.0  0.352  0.0

Improper Coeffs

1  0.0  -1.0  2.0

Atoms # full

1  1  1  -0.2821   1.393   -0.61252    7.50000000000473e-05 
2  1  1   0.1689  -0.128   -0.61252    7.50000000000473e-05 
3  1  2  -0.6872  -0.596   -0.61252    1.345505 
4  1  1  -0.2818  -0.694    0.59736   -0.727345 
5  1  3   0.0912   1.773   -1.48142    0.547925 
6  1  3   0.0912   1.787    0.27544    0.506905 
7  1  3   0.0912   1.789   -0.64129   -1.019335 
8  1  3   0.1293  -0.493   -1.52957   -0.474055 
9  1  4   0.4057  -0.274    0.1992    1.773735 
10  1  3   0.0912  -0.376    1.52957   -0.247375 
11  1  3   0.0912  -1.789    0.58381   -0.693105 
12  1  3   0.0912  -0.375    0.61599   -1.773735 

Bonds

1  1  2  1
2  2  3  2
3  1  4  2
4  3  5  1
5  3  6  1
6  3  7  1
7  3  8  2
8  4  9  3
9  3  10  4
10  3  11  4
11  3  12  4

Angles

1  1  1  2  3
2  2  1  2  4
3  3  2  1  5
4  3  2  1  6
5  3  2  1  7
6  3  1  2  8
7  4  2  3  9
8  3  2  4  10
9  3  2  4  11
10  3  2  4  12
11  5  11  4  12
12  3  4  2  8
13  5  6  1  7
14  5  10  4  12
15  5  5  1  6
16  1  3  2  4
17  5  10  4  11
18  6  3  2  8
19  5  5  1  7

Dihedrals

1  1  5  1  2  3
2  2  9  3  2  1
3  3  10  4  2  1
4  3  11  4  2  1
5  3  12  4  2  1
6  2  9  3  2  4
7  3  8  2  1  7
8  3  11  4  2  8
9  3  10  4  2  8
10  3  12  4  2  8
11  1  10  4  2  3
12  4  9  3  2  8
13  3  8  2  1  5
14  3  8  2  1  6
15  1  12  4  2  3
16  1  11  4  2  3
17  3  5  1  2  4
18  1  6  1  2  3
19  1  7  1  2  3
20  3  6  1  2  4
21  3  7  1  2  4

Impropers

1  1  2  1  3  4
2  1  1  2  5  6
3  1  1  2  5  7
4  1  2  1  3  8
5  1  4  2  11  10
6  1  4  2  12  10
