LAMMPS data file Created by LigParGen - (Written by Leela S. Dodda)

      12 atoms
      11 bonds
      19 angles
      21 dihedrals
       6 impropers
 
      12 atom types
      11 bond types
      19 angle types
      21 dihedral types
       6 improper types
 
   -2.181900    47.818100 xlo xhi
    0.082950    50.082950 ylo yhi
   -1.773810    48.226190 zlo zhi

Masses

       1     12.011  
       2     12.011  
       3     15.999  
       4     12.011  
       5      1.008  
       6      1.008  
       7      1.008  
       8      1.008  
       9      1.008  
      10      1.008  
      11      1.008  
      12      1.008  

Pair Coeffs 

       1      0.066  3.5000000 
       2      0.066  3.5000000 
       3      0.170  3.1200000 
       4      0.066  3.5000000 
       5      0.030  2.5000000 
       6      0.030  2.5000000 
       7      0.030  2.5000000 
       8      0.030  2.5000000 
       9      0.000  0.0000000 
      10      0.030  2.5000000 
      11      0.030  2.5000000 
      12      0.030  2.5000000 

Bond Coeffs 

       1   268.0000     1.5290 
       2   320.0000     1.4100 
       3   268.0000     1.5290 
       4   340.0000     1.0900 
       5   340.0000     1.0900 
       6   340.0000     1.0900 
       7   340.0000     1.0900 
       8   553.0000     0.9450 
       9   340.0000     1.0900 
      10   340.0000     1.0900 
      11   340.0000     1.0900 

Angle Coeffs 

       1     50.000    109.500
       2     58.350    112.700
       3     37.500    110.700
       4     37.500    110.700
       5     37.500    110.700
       6     37.500    110.700
       7     55.000    108.500
       8     37.500    110.700
       9     37.500    110.700
      10     37.500    110.700
      11     33.000    107.800
      12     37.500    110.700
      13     33.000    107.800
      14     33.000    107.800
      15     33.000    107.800
      16     50.000    109.500
      17     33.000    107.800
      18     35.000    109.500
      19     33.000    107.800

Dihedral Coeffs  

       1      0.000      0.000      0.468      0.000 
       2     -0.356     -0.174      0.492      0.000 
       3      0.000      0.000      0.300      0.000 
       4      0.000      0.000      0.300      0.000 
       5      0.000      0.000      0.300      0.000 
       6     -0.356     -0.174      0.492      0.000 
       7      0.000      0.000      0.300      0.000 
       8      0.000      0.000      0.300      0.000 
       9      0.000      0.000      0.300      0.000 
      10      0.000      0.000      0.300      0.000 
      11      0.000      0.000      0.468      0.000 
      12      0.000      0.000      0.352      0.000 
      13      0.000      0.000      0.300      0.000 
      14      0.000      0.000      0.300      0.000 
      15      0.000      0.000      0.468      0.000 
      16      0.000      0.000      0.468      0.000 
      17      0.000      0.000      0.300      0.000 
      18      0.000      0.000      0.468      0.000 
      19      0.000      0.000      0.468      0.000 
      20      0.000      0.000      0.300      0.000 
      21      0.000      0.000      0.300      0.000 

Improper Coeffs 

       1      0.000      -1       2 
       2      0.000      -1       2 
       3      0.000      -1       2 
       4      0.000      -1       2 
       5      0.000      -1       2 
       6      0.000      -1       2 

Atoms 

     1      1      1 -0.28210000    1.000  1.00000  0.00000
     2      1      2 0.16890000   -0.521  1.00000  0.00000
     3      1      3 -0.68720000   -0.989  1.00000  1.34543
     4      1      4 -0.28180000   -1.087  2.20988 -0.72742
     5      1      5 0.09120000    1.380  0.13110  0.54785
     6      1      6 0.09120000    1.394  1.88796  0.50683
     7      1      7 0.09120000    1.396  0.97123 -1.01941
     8      1      8 0.12930000   -0.886  0.08295 -0.47413
     9      1      9 0.40570000   -0.667  1.81172  1.77366
    10      1     10 0.09120000   -0.769  3.14209 -0.24745
    11      1     11 0.09120000   -2.182  2.19633 -0.69318
    12      1     12 0.09120000   -0.768  2.22851 -1.77381

Bonds 

     1      1      2      1
     2      2      3      2
     3      3      4      2
     4      4      5      1
     5      5      6      1
     6      6      7      1
     7      7      8      2
     8      8      9      3
     9      9     10      4
    10     10     11      4
    11     11     12      4

Angles 

     1      1      1      2      3
     2      2      1      2      4
     3      3      2      1      5
     4      4      2      1      6
     5      5      2      1      7
     6      6      1      2      8
     7      7      2      3      9
     8      8      2      4     10
     9      9      2      4     11
    10     10      2      4     12
    11     11     11      4     12
    12     12      4      2      8
    13     13      6      1      7
    14     14     10      4     12
    15     15      5      1      6
    16     16      3      2      4
    17     17     10      4     11
    18     18      3      2      8
    19     19      5      1      7

Dihedrals

     1      1      5      1      2      3 
     2      2      9      3      2      1 
     3      3     10      4      2      1 
     4      4     11      4      2      1 
     5      5     12      4      2      1 
     6      6      9      3      2      4 
     7      7      8      2      1      7 
     8      8     11      4      2      8 
     9      9     10      4      2      8 
    10     10     12      4      2      8 
    11     11     10      4      2      3 
    12     12      9      3      2      8 
    13     13      8      2      1      5 
    14     14      8      2      1      6 
    15     15     12      4      2      3 
    16     16     11      4      2      3 
    17     17      5      1      2      4 
    18     18      6      1      2      3 
    19     19      7      1      2      3 
    20     20      6      1      2      4 
    21     21      7      1      2      4 

Impropers

     1      1      2      1      3      4 
     2      2      1      2      5      6 
     3      3      1      2      5      7 
     4      4      2      1      3      8 
     5      5      4      2     11     10 
     6      6      4      2     12     10 

