#slvnt_butanol

15 atoms
4 atom types

14 bonds
4 bond types

25 angles
6 angle types

30 dihedrals
6 dihedral types

8 impropers
1 improper types

-2.6505  2.6505  xlo xhi
-0.89216  0.89216  ylo yhi
-2.209805  2.209805  zlo zhi

Masses

1  15.999
2  12.011
3  1.008
4  1.008

Pair Coeffs

1  0.17  3.12
2  0.066  3.5
3  0.0  0.0
4  0.03  2.5

Bond Coeffs

1  320.0  1.41
2  268.0  1.529
3  553.0  0.945
4  340.0  1.09

Angle Coeffs

1  50.0  109.5
2  58.35  112.7
3  55.0  108.5
4  35.0  109.5
5  37.5  110.7
6  33.0  107.8

Dihedral Coeffs

1  -1.552  0.0  0.0  0.0
2  1.3  -0.2  0.2  0.0
3  -0.356  -0.174  0.492  0.0
4  0.0  0.0  0.3  0.0
5  0.0  0.0  0.352  0.0
6  0.0  0.0  0.468  0.0

Improper Coeffs

1  0.0  -1.0  2.0

Atoms # full

1  1  1  -0.6927   2.3665    2.99999999999745e-05   -1.279825 
2  1  2   0.1125   0.9455    2.99999999999745e-05   -1.279825 
3  1  2  -0.1849   0.4555    2.99999999999745e-05    0.161055 
4  1  2  -0.1765  -1.0695    0.00181999999999993    0.235825 
5  1  2  -0.2374  -1.5555    0.00360999999999989    1.676005 
6  1  3   0.4078   2.6505   -0.00114999999999998   -2.209805 
7  1  4   0.068   0.5985   -0.89216   -1.810585 
8  1  4   0.068   0.5985    0.89216   -1.810555 
9  1  4   0.1052   0.8625    0.87551    0.682505 
10  1  4   0.1052   0.8605   -0.87674    0.681725 
11  1  4   0.0879  -1.4675   -0.88133   -0.276945 
12  1  4   0.0879  -1.4655    0.88501   -0.278465 
13  1  4   0.083  -1.2015   -0.88397    2.209805 
14  1  4   0.083  -2.6505    0.00357999999999992    1.705055 
15  1  4   0.083  -1.1995    0.8912    2.208215 

Bonds

1  1  2  1
2  2  3  2
3  2  4  3
4  2  5  4
5  3  6  1
6  4  7  2
7  4  8  2
8  4  9  3
9  4  10  3
10  4  11  4
11  4  12  4
12  4  13  5
13  4  14  5
14  4  15  5

Angles

1  1  1  2  3
2  2  2  3  4
3  2  3  4  5
4  3  2  1  6
5  4  1  2  7
6  4  1  2  8
7  5  2  3  9
8  5  2  3  10
9  5  3  4  11
10  5  3  4  12
11  5  4  5  13
12  5  4  5  14
13  5  4  5  15
14  5  5  4  12
15  6  13  5  14
16  6  11  4  12
17  6  14  5  15
18  5  4  3  10
19  5  3  2  8
20  6  9  3  10
21  6  7  2  8
22  5  5  4  11
23  5  4  3  9
24  6  13  5  15
25  5  3  2  7

Dihedrals

1  1  4  3  2  1
2  2  5  4  3  2
3  3  6  1  2  3
4  4  13  5  4  3
5  4  8  2  3  4
6  4  12  4  3  10
7  5  8  2  1  6
8  4  13  5  4  12
9  4  14  5  4  11
10  6  9  3  2  1
11  4  11  4  3  9
12  4  13  5  4  11
13  4  9  3  2  7
14  4  14  5  4  12
15  4  11  4  3  2
16  4  15  5  4  12
17  4  10  3  2  8
18  4  10  3  2  7
19  4  9  3  2  8
20  4  15  5  4  3
21  4  15  5  4  11
22  5  7  2  1  6
23  6  10  3  2  1
24  4  7  2  3  4
25  4  10  3  4  5
26  4  11  4  3  10
27  4  12  4  3  9
28  4  9  3  4  5
29  4  12  4  3  2
30  4  14  5  4  3

Impropers

1  1  2  1  3  7
2  1  2  1  3  8
3  1  3  9  2  4
4  1  3  10  4  2
5  1  4  11  5  3
6  1  4  3  12  5
7  1  5  13  4  14
8  1  5  13  4  15
