LAMMPS data file Created by LigParGen - (Written by Leela S. Dodda)

      15 atoms
      14 bonds
      25 angles
      30 dihedrals
       8 impropers
 
      15 atom types
      14 bond types
      25 angle types
      30 dihedral types
       8 improper types
 
   -4.016600    45.983400 xlo xhi
    0.107810    50.107810 ylo yhi
   -0.929980    49.070020 zlo zhi

Masses

       1     15.999  
       2     12.011  
       3     12.011  
       4     12.011  
       5     12.011  
       6      1.008  
       7      1.008  
       8      1.008  
       9      1.008  
      10      1.008  
      11      1.008  
      12      1.008  
      13      1.008  
      14      1.008  
      15      1.008  

Pair Coeffs 

       1      0.170  3.1200000 
       2      0.066  3.5000000 
       3      0.066  3.5000000 
       4      0.066  3.5000000 
       5      0.066  3.5000000 
       6      0.000  0.0000000 
       7      0.030  2.5000000 
       8      0.030  2.5000000 
       9      0.030  2.5000000 
      10      0.030  2.5000000 
      11      0.030  2.5000000 
      12      0.030  2.5000000 
      13      0.030  2.5000000 
      14      0.030  2.5000000 
      15      0.030  2.5000000 

Bond Coeffs 

       1   320.0000     1.4100 
       2   268.0000     1.5290 
       3   268.0000     1.5290 
       4   268.0000     1.5290 
       5   553.0000     0.9450 
       6   340.0000     1.0900 
       7   340.0000     1.0900 
       8   340.0000     1.0900 
       9   340.0000     1.0900 
      10   340.0000     1.0900 
      11   340.0000     1.0900 
      12   340.0000     1.0900 
      13   340.0000     1.0900 
      14   340.0000     1.0900 

Angle Coeffs 

       1     50.000    109.500
       2     58.350    112.700
       3     58.350    112.700
       4     55.000    108.500
       5     35.000    109.500
       6     35.000    109.500
       7     37.500    110.700
       8     37.500    110.700
       9     37.500    110.700
      10     37.500    110.700
      11     37.500    110.700
      12     37.500    110.700
      13     37.500    110.700
      14     37.500    110.700
      15     33.000    107.800
      16     33.000    107.800
      17     33.000    107.800
      18     37.500    110.700
      19     37.500    110.700
      20     33.000    107.800
      21     33.000    107.800
      22     37.500    110.700
      23     37.500    110.700
      24     33.000    107.800
      25     37.500    110.700

Dihedral Coeffs  

       1     -1.552      0.000      0.000      0.000 
       2      1.300     -0.200      0.200      0.000 
       3     -0.356     -0.174      0.492      0.000 
       4      0.000      0.000      0.300      0.000 
       5      0.000      0.000      0.300      0.000 
       6      0.000      0.000      0.300      0.000 
       7      0.000      0.000      0.352      0.000 
       8      0.000      0.000      0.300      0.000 
       9      0.000      0.000      0.300      0.000 
      10      0.000      0.000      0.468      0.000 
      11      0.000      0.000      0.300      0.000 
      12      0.000      0.000      0.300      0.000 
      13      0.000      0.000      0.300      0.000 
      14      0.000      0.000      0.300      0.000 
      15      0.000      0.000      0.300      0.000 
      16      0.000      0.000      0.300      0.000 
      17      0.000      0.000      0.300      0.000 
      18      0.000      0.000      0.300      0.000 
      19      0.000      0.000      0.300      0.000 
      20      0.000      0.000      0.300      0.000 
      21      0.000      0.000      0.300      0.000 
      22      0.000      0.000      0.352      0.000 
      23      0.000      0.000      0.468      0.000 
      24      0.000      0.000      0.300      0.000 
      25      0.000      0.000      0.300      0.000 
      26      0.000      0.000      0.300      0.000 
      27      0.000      0.000      0.300      0.000 
      28      0.000      0.000      0.300      0.000 
      29      0.000      0.000      0.300      0.000 
      30      0.000      0.000      0.300      0.000 

Improper Coeffs 

       1      0.000      -1       2 
       2      0.000      -1       2 
       3      0.000      -1       2 
       4      0.000      -1       2 
       5      0.000      -1       2 
       6      0.000      -1       2 
       7      0.000      -1       2 
       8      0.000      -1       2 

Atoms 

     1      1      1 -0.69270000    1.000  1.00000  0.00000
     2      1      2 0.11250000   -0.421  1.00000  0.00000
     3      1      3 -0.18490000   -0.911  1.00000  1.44088
     4      1      4 -0.17650000   -2.436  1.00179  1.51565
     5      1      5 -0.23740000   -2.922  1.00358  2.95583
     6      1      6 0.40780000    1.284  0.99882 -0.92998
     7      1      7 0.06800000   -0.768  0.10781 -0.53076
     8      1      8 0.06800000   -0.768  1.89213 -0.53073
     9      1      9 0.10520000   -0.504  1.87548  1.96233
    10      1     10 0.10520000   -0.506  0.12323  1.96155
    11      1     11 0.08790000   -2.834  0.11864  1.00288
    12      1     12 0.08790000   -2.832  1.88498  1.00136
    13      1     13 0.08300000   -2.568  0.11600  3.48963
    14      1     14 0.08300000   -4.017  1.00355  2.98488
    15      1     15 0.08300000   -2.566  1.89117  3.48804

Bonds 

     1      1      2      1
     2      2      3      2
     3      3      4      3
     4      4      5      4
     5      5      6      1
     6      6      7      2
     7      7      8      2
     8      8      9      3
     9      9     10      3
    10     10     11      4
    11     11     12      4
    12     12     13      5
    13     13     14      5
    14     14     15      5

Angles 

     1      1      1      2      3
     2      2      2      3      4
     3      3      3      4      5
     4      4      2      1      6
     5      5      1      2      7
     6      6      1      2      8
     7      7      2      3      9
     8      8      2      3     10
     9      9      3      4     11
    10     10      3      4     12
    11     11      4      5     13
    12     12      4      5     14
    13     13      4      5     15
    14     14      5      4     12
    15     15     13      5     14
    16     16     11      4     12
    17     17     14      5     15
    18     18      4      3     10
    19     19      3      2      8
    20     20      9      3     10
    21     21      7      2      8
    22     22      5      4     11
    23     23      4      3      9
    24     24     13      5     15
    25     25      3      2      7

Dihedrals

     1      1      4      3      2      1 
     2      2      5      4      3      2 
     3      3      6      1      2      3 
     4      4     13      5      4      3 
     5      5      8      2      3      4 
     6      6     12      4      3     10 
     7      7      8      2      1      6 
     8      8     13      5      4     12 
     9      9     14      5      4     11 
    10     10      9      3      2      1 
    11     11     11      4      3      9 
    12     12     13      5      4     11 
    13     13      9      3      2      7 
    14     14     14      5      4     12 
    15     15     11      4      3      2 
    16     16     15      5      4     12 
    17     17     10      3      2      8 
    18     18     10      3      2      7 
    19     19      9      3      2      8 
    20     20     15      5      4      3 
    21     21     15      5      4     11 
    22     22      7      2      1      6 
    23     23     10      3      2      1 
    24     24      7      2      3      4 
    25     25     10      3      4      5 
    26     26     11      4      3     10 
    27     27     12      4      3      9 
    28     28      9      3      4      5 
    29     29     12      4      3      2 
    30     30     14      5      4      3 

Impropers

     1      1      2      1      3      7 
     2      2      2      1      3      8 
     3      3      3      9      2      4 
     4      4      3     10      4      2 
     5      5      4     11      5      3 
     6      6      4      3     12      5 
     7      7      5     13      4     14 
     8      8      5     13      4     15 

