#ligand_hexthiolate

20 atoms
3 atom types

19 bonds
3 bond types

36 angles
5 angle types

45 dihedrals
4 dihedral types

12 impropers
1 improper types

-5.32089  44.67911  xlo xhi
0  50.11239  ylo yhi
-1.02718  48.97282  zlo zhi

Masses

1  12.011
2  32.06
3  1.008

Pair Coeffs

1  0.066  3.5
2  0.355  3.55
3  0.03  2.5

Bond Coeffs

1  268.0  1.529
2  340.0  1.77
3  340.0  1.09

Angle Coeffs

1  58.35  112.7
2  50.0  108.6
3  37.5  110.7
4  33.0  107.8
5  35.0  109.5

Dihedral Coeffs

1  1.3  -0.2  0.2  0.0
2  1.262  -0.198  0.465  0.0
3  0.0  0.0  0.3  0.0
4  0.0  0.0  0.452  0.0

Improper Coeffs

1  0.0  -1.0  2.0

Atoms # full

1  1  1  -0.2074   1   1   0
2  1  1  -0.159  -0.52   1   0
3  1  1  -0.1559  -1.079   1   1.4228
4  1  1  -0.1685  -2.609   1.0018   1.41951
5  1  1  -0.1508  -3.168   1   2.84627
6  1  1  -0.0859  -4.703   1.00363   2.83476
7  1  2  -0.8986  -5.321   0.99912   4.55962
8  1  3   0.0623   1.378   0.9987  -1.02718
9  1  3   0.0623   1.391   0.11239   0.50752
10  1  3   0.0623   1.391   1.88879   0.50521
11  1  3   0.0714  -0.879   0.11668  -0.54097
12  1  3   0.0714  -0.879   1.88334  -0.54099
13  1  3   0.0741  -0.711   1.88218   1.96099
14  1  3   0.0741  -0.713   0.11652   1.96014
15  1  3   0.0637  -2.975   0.1197   0.8804
16  1  3   0.0637  -2.973   1.88658   0.88347
17  1  3   0.0784  -2.787   1.88163   3.37848
18  1  3   0.0784  -2.791   0.11416   3.37467
19  1  3   0.032  -5.053   0.13097   2.26998
20  1  3   0.032  -5.049   1.8818   2.27602

Bonds

1  1  2  1
2  1  3  2
3  1  4  3
4  1  5  4
5  1  6  5
6  2  7  6
7  3  8  1
8  3  9  1
9  3  10  1
10  3  11  2
11  3  12  2
12  3  13  3
13  3  14  3
14  3  15  4
15  3  16  4
16  3  17  5
17  3  18  5
18  3  19  6
19  3  20  6

Angles

1  1  1  2  3
2  1  2  3  4
3  1  3  4  5
4  1  4  5  6
5  2  5  6  7
6  3  2  1  8
7  3  2  1  9
8  3  2  1  10
9  3  1  2  11
10  3  1  2  12
11  3  2  3  13
12  3  2  3  14
13  3  3  4  15
14  3  3  4  16
15  3  4  5  17
16  3  4  5  18
17  3  5  6  19
18  3  5  6  20
19  4  17  5  18
20  4  15  4  16
21  4  8  1  10
22  4  11  2  12
23  3  6  5  17
24  3  5  4  16
25  4  8  1  9
26  3  3  2  11
27  5  7  6  19
28  3  5  4  15
29  4  13  3  14
30  3  3  2  12
31  4  19  6  20
32  4  9  1  10
33  3  4  3  14
34  3  4  3  13
35  5  7  6  20
36  3  6  5  18

Dihedrals

1  1  4  3  2  1
2  1  5  4  3  2
3  1  6  5  4  3
4  2  7  6  5  4
5  3  8  1  2  3
6  3  14  3  4  5
7  3  19  6  5  17
8  3  19  6  5  4
9  4  18  5  6  7
10  3  20  6  5  4
11  3  9  1  2  3
12  3  16  4  3  13
13  3  15  4  3  14
14  3  17  5  4  16
15  3  18  5  4  15
16  3  14  3  2  12
17  3  12  2  1  10
18  3  14  3  2  1
19  3  13  3  2  12
20  3  14  3  2  11
21  3  12  2  3  4
22  4  17  5  6  7
23  3  16  4  3  2
24  3  15  4  3  2
25  3  13  3  4  5
26  3  13  3  2  11
27  3  16  4  3  14
28  3  15  4  3  13
29  3  17  5  4  15
30  3  11  2  1  8
31  3  12  2  1  9
32  3  20  6  5  18
33  3  20  6  5  17
34  3  19  6  5  18
35  3  10  1  2  3
36  3  18  5  4  16
37  3  11  2  3  4
38  3  13  3  2  1
39  3  15  4  5  6
40  3  12  2  1  8
41  3  18  5  4  3
42  3  11  2  1  9
43  3  17  5  4  3
44  3  11  2  1  10
45  3  16  4  5  6

Impropers

1  1  1  9  8  2
2  1  1  10  8  2
3  1  2  1  11  3
4  1  2  1  3  12
5  1  3  2  4  13
6  1  3  2  4  14
7  1  4  3  5  15
8  1  4  3  5  16
9  1  5  17  4  6
10  1  5  18  4  6
11  1  6  19  5  7
12  1  6  20  5  7
