LAMMPS data file Created by LigParGen - (Written by Leela S. Dodda)

      20 atoms
      19 bonds
      36 angles
      45 dihedrals
      12 impropers
 
      20 atom types
      19 bond types
      36 angle types
      45 dihedral types
      12 improper types
 
   -5.320890    44.679110 xlo xhi
    0.112390    50.112390 ylo yhi
   -1.027180    48.972820 zlo zhi

Masses

       1     12.011  
       2     12.011  
       3     12.011  
       4     12.011  
       5     12.011  
       6     12.011  
       7     32.060  
       8      1.008  
       9      1.008  
      10      1.008  
      11      1.008  
      12      1.008  
      13      1.008  
      14      1.008  
      15      1.008  
      16      1.008  
      17      1.008  
      18      1.008  
      19      1.008  
      20      1.008  

Pair Coeffs 

       1      0.066  3.5000000 
       2      0.066  3.5000000 
       3      0.066  3.5000000 
       4      0.066  3.5000000 
       5      0.066  3.5000000 
       6      0.066  3.5000000 
       7      0.355  3.5500000 
       8      0.030  2.5000000 
       9      0.030  2.5000000 
      10      0.030  2.5000000 
      11      0.030  2.5000000 
      12      0.030  2.5000000 
      13      0.030  2.5000000 
      14      0.030  2.5000000 
      15      0.030  2.5000000 
      16      0.030  2.5000000 
      17      0.030  2.5000000 
      18      0.030  2.5000000 
      19      0.030  2.5000000 
      20      0.030  2.5000000 

Bond Coeffs 

       1   268.0000     1.5290 
       2   268.0000     1.5290 
       3   268.0000     1.5290 
       4   268.0000     1.5290 
       5   268.0000     1.5290 
       6   340.0000     1.7700 
       7   340.0000     1.0900 
       8   340.0000     1.0900 
       9   340.0000     1.0900 
      10   340.0000     1.0900 
      11   340.0000     1.0900 
      12   340.0000     1.0900 
      13   340.0000     1.0900 
      14   340.0000     1.0900 
      15   340.0000     1.0900 
      16   340.0000     1.0900 
      17   340.0000     1.0900 
      18   340.0000     1.0900 
      19   340.0000     1.0900 

Angle Coeffs 

       1     58.350    112.700
       2     58.350    112.700
       3     58.350    112.700
       4     58.350    112.700
       5     50.000    108.600
       6     37.500    110.700
       7     37.500    110.700
       8     37.500    110.700
       9     37.500    110.700
      10     37.500    110.700
      11     37.500    110.700
      12     37.500    110.700
      13     37.500    110.700
      14     37.500    110.700
      15     37.500    110.700
      16     37.500    110.700
      17     37.500    110.700
      18     37.500    110.700
      19     33.000    107.800
      20     33.000    107.800
      21     33.000    107.800
      22     33.000    107.800
      23     37.500    110.700
      24     37.500    110.700
      25     33.000    107.800
      26     37.500    110.700
      27     35.000    109.500
      28     37.500    110.700
      29     33.000    107.800
      30     37.500    110.700
      31     33.000    107.800
      32     33.000    107.800
      33     37.500    110.700
      34     37.500    110.700
      35     35.000    109.500
      36     37.500    110.700

Dihedral Coeffs  

       1      1.300     -0.200      0.200      0.000 
       2      1.300     -0.200      0.200      0.000 
       3      1.300     -0.200      0.200      0.000 
       4      1.262     -0.198      0.465      0.000 
       5      0.000      0.000      0.300      0.000 
       6      0.000      0.000      0.300      0.000 
       7      0.000      0.000      0.300      0.000 
       8      0.000      0.000      0.300      0.000 
       9      0.000      0.000      0.452      0.000 
      10      0.000      0.000      0.300      0.000 
      11      0.000      0.000      0.300      0.000 
      12      0.000      0.000      0.300      0.000 
      13      0.000      0.000      0.300      0.000 
      14      0.000      0.000      0.300      0.000 
      15      0.000      0.000      0.300      0.000 
      16      0.000      0.000      0.300      0.000 
      17      0.000      0.000      0.300      0.000 
      18      0.000      0.000      0.300      0.000 
      19      0.000      0.000      0.300      0.000 
      20      0.000      0.000      0.300      0.000 
      21      0.000      0.000      0.300      0.000 
      22      0.000      0.000      0.452      0.000 
      23      0.000      0.000      0.300      0.000 
      24      0.000      0.000      0.300      0.000 
      25      0.000      0.000      0.300      0.000 
      26      0.000      0.000      0.300      0.000 
      27      0.000      0.000      0.300      0.000 
      28      0.000      0.000      0.300      0.000 
      29      0.000      0.000      0.300      0.000 
      30      0.000      0.000      0.300      0.000 
      31      0.000      0.000      0.300      0.000 
      32      0.000      0.000      0.300      0.000 
      33      0.000      0.000      0.300      0.000 
      34      0.000      0.000      0.300      0.000 
      35      0.000      0.000      0.300      0.000 
      36      0.000      0.000      0.300      0.000 
      37      0.000      0.000      0.300      0.000 
      38      0.000      0.000      0.300      0.000 
      39      0.000      0.000      0.300      0.000 
      40      0.000      0.000      0.300      0.000 
      41      0.000      0.000      0.300      0.000 
      42      0.000      0.000      0.300      0.000 
      43      0.000      0.000      0.300      0.000 
      44      0.000      0.000      0.300      0.000 
      45      0.000      0.000      0.300      0.000 

Improper Coeffs 

       1      0.000      -1       2 
       2      0.000      -1       2 
       3      0.000      -1       2 
       4      0.000      -1       2 
       5      0.000      -1       2 
       6      0.000      -1       2 
       7      0.000      -1       2 
       8      0.000      -1       2 
       9      0.000      -1       2 
      10      0.000      -1       2 
      11      0.000      -1       2 
      12      0.000      -1       2 

Atoms 

     1      1      1 -0.20740000    1.000  1.00000  0.00000
     2      1      2 -0.15900000   -0.520  1.00000  0.00000
     3      1      3 -0.15590000   -1.079  1.00000  1.42280
     4      1      4 -0.16850000   -2.609  1.00180  1.41951
     5      1      5 -0.15080000   -3.168  1.00000  2.84627
     6      1      6 -0.08590000   -4.703  1.00363  2.83476
     7      1      7 -0.89860000   -5.321  0.99912  4.55962
     8      1      8 0.06230000    1.378  0.99870 -1.02718
     9      1      9 0.06230000    1.391  0.11239  0.50752
    10      1     10 0.06230000    1.391  1.88879  0.50521
    11      1     11 0.07140000   -0.879  0.11668 -0.54097
    12      1     12 0.07140000   -0.879  1.88334 -0.54099
    13      1     13 0.07410000   -0.711  1.88218  1.96099
    14      1     14 0.07410000   -0.713  0.11652  1.96014
    15      1     15 0.06370000   -2.975  0.11970  0.88040
    16      1     16 0.06370000   -2.973  1.88658  0.88347
    17      1     17 0.07840000   -2.787  1.88163  3.37848
    18      1     18 0.07840000   -2.791  0.11416  3.37467
    19      1     19 0.03200000   -5.053  0.13097  2.26998
    20      1     20 0.03200000   -5.049  1.88180  2.27602

Bonds 

     1      1      2      1
     2      2      3      2
     3      3      4      3
     4      4      5      4
     5      5      6      5
     6      6      7      6
     7      7      8      1
     8      8      9      1
     9      9     10      1
    10     10     11      2
    11     11     12      2
    12     12     13      3
    13     13     14      3
    14     14     15      4
    15     15     16      4
    16     16     17      5
    17     17     18      5
    18     18     19      6
    19     19     20      6

Angles 

     1      1      1      2      3
     2      2      2      3      4
     3      3      3      4      5
     4      4      4      5      6
     5      5      5      6      7
     6      6      2      1      8
     7      7      2      1      9
     8      8      2      1     10
     9      9      1      2     11
    10     10      1      2     12
    11     11      2      3     13
    12     12      2      3     14
    13     13      3      4     15
    14     14      3      4     16
    15     15      4      5     17
    16     16      4      5     18
    17     17      5      6     19
    18     18      5      6     20
    19     19     17      5     18
    20     20     15      4     16
    21     21      8      1     10
    22     22     11      2     12
    23     23      6      5     17
    24     24      5      4     16
    25     25      8      1      9
    26     26      3      2     11
    27     27      7      6     19
    28     28      5      4     15
    29     29     13      3     14
    30     30      3      2     12
    31     31     19      6     20
    32     32      9      1     10
    33     33      4      3     14
    34     34      4      3     13
    35     35      7      6     20
    36     36      6      5     18

Dihedrals

     1      1      4      3      2      1 
     2      2      5      4      3      2 
     3      3      6      5      4      3 
     4      4      7      6      5      4 
     5      5      8      1      2      3 
     6      6     14      3      4      5 
     7      7     19      6      5     17 
     8      8     19      6      5      4 
     9      9     18      5      6      7 
    10     10     20      6      5      4 
    11     11      9      1      2      3 
    12     12     16      4      3     13 
    13     13     15      4      3     14 
    14     14     17      5      4     16 
    15     15     18      5      4     15 
    16     16     14      3      2     12 
    17     17     12      2      1     10 
    18     18     14      3      2      1 
    19     19     13      3      2     12 
    20     20     14      3      2     11 
    21     21     12      2      3      4 
    22     22     17      5      6      7 
    23     23     16      4      3      2 
    24     24     15      4      3      2 
    25     25     13      3      4      5 
    26     26     13      3      2     11 
    27     27     16      4      3     14 
    28     28     15      4      3     13 
    29     29     17      5      4     15 
    30     30     11      2      1      8 
    31     31     12      2      1      9 
    32     32     20      6      5     18 
    33     33     20      6      5     17 
    34     34     19      6      5     18 
    35     35     10      1      2      3 
    36     36     18      5      4     16 
    37     37     11      2      3      4 
    38     38     13      3      2      1 
    39     39     15      4      5      6 
    40     40     12      2      1      8 
    41     41     18      5      4      3 
    42     42     11      2      1      9 
    43     43     17      5      4      3 
    44     44     11      2      1     10 
    45     45     16      4      5      6 

Impropers

     1      1      1      9      8      2 
     2      2      1     10      8      2 
     3      3      2      1     11      3 
     4      4      2      1      3     12 
     5      5      3      2      4     13 
     6      6      3      2      4     14 
     7      7      4      3      5     15 
     8      8      4      3      5     16 
     9      9      5     17      4      6 
    10     10      5     18      4      6 
    11     11      6     19      5      7 
    12     12      6     20      5      7 

