#C6_thiol

21 atoms
4 atom types

20 bonds
4 bond types

37 angles
6 angle types

48 dihedrals
6 dihedral types

12 impropers
1 improper types

-5.34457  44.65543  xlo xhi
-0.17695  49.82305  ylo yhi
-1.02719  48.97281  zlo zhi

Masses

1  12.011
2  32.06
3  1.008
4  1.008

Pair Coeffs

1  0.066  3.5
2  0.425  3.6
3  0.03  2.5
4  0.0  0.0

Bond Coeffs

1  268.0  1.529
2  222.0  1.81
3  340.0  1.09
4  274.0  1.336

Angle Coeffs

1  58.35  112.7
2  50.0  108.6
3  37.5  110.7
4  44.0  96.0
5  33.0  107.8
6  35.0  109.5

Dihedral Coeffs

1  1.3  -0.2  0.2  0.0
2  1.262  -0.198  0.465  0.0
3  0.0  0.0  0.3  0.0
4  -0.759  -0.282  0.68  0.0
5  0.0  0.0  0.452  0.0
6  0.0  0.0  0.48  0.0

Improper Coeffs

1  0.0  -1.0  2.0

Atoms # full

1  1  1  -0.239   1   1   0
2  1  1  -0.1792  -0.52   1   0
3  1  1  -0.1776  -1.079   1   1.42275
4  1  1  -0.1802  -2.608   0.9982   1.41946
5  1  1  -0.1836  -3.166   0.9964   2.84529
6  1  1   0.0127  -4.692   0.9928   2.83384
7  1  2  -0.4417  -5.345   0.99284   4.52841
8  1  3   0.0819   1.378   1.0013  -1.02719
9  1  3   0.0819   1.391   0.11121   0.50521
10  1  3   0.0819   1.391   1.88769   0.50756
11  1  3   0.0889  -0.879   0.11664  -0.541
12  1  3   0.0889  -0.879   1.88337  -0.54101
13  1  3   0.0912  -0.713   1.88344   1.96007
14  1  3   0.0912  -0.711   0.11788   1.96091
15  1  3   0.0912  -2.973   0.11472   0.88116
16  1  3   0.0912  -2.975   1.88167   0.88258
17  1  3   0.1017  -2.796   1.88199   3.37696
18  1  3   0.1017  -2.791   0.11185   3.37541
19  1  3   0.1258  -5.072   0.10614   2.31618
20  1  3   0.1258  -5.075   1.87888   2.31741
21  1  4   0.1452  -4.805  -0.17695   4.90187

Bonds

1  1  2  1
2  1  3  2
3  1  4  3
4  1  5  4
5  1  6  5
6  2  7  6
7  3  8  1
8  3  9  1
9  3  10  1
10  3  11  2
11  3  12  2
12  3  13  3
13  3  14  3
14  3  15  4
15  3  16  4
16  3  17  5
17  3  18  5
18  3  19  6
19  3  20  6
20  4  21  7

Angles

1  1  1  2  3
2  1  2  3  4
3  1  3  4  5
4  1  4  5  6
5  2  5  6  7
6  3  2  1  8
7  3  2  1  9
8  3  2  1  10
9  3  1  2  11
10  3  1  2  12
11  3  2  3  13
12  3  2  3  14
13  3  3  4  15
14  3  3  4  16
15  3  4  5  17
16  3  4  5  18
17  3  5  6  19
18  3  5  6  20
19  4  6  7  21
20  5  17  5  18
21  5  15  4  16
22  5  8  1  10
23  5  11  2  12
24  3  6  5  17
25  3  5  4  16
26  5  8  1  9
27  3  3  2  11
28  6  7  6  19
29  3  5  4  15
30  5  13  3  14
31  3  3  2  12
32  5  19  6  20
33  5  9  1  10
34  3  4  3  14
35  3  4  3  13
36  6  7  6  20
37  3  6  5  18

Dihedrals

1  1  4  3  2  1
2  1  5  4  3  2
3  1  6  5  4  3
4  2  7  6  5  4
5  3  8  1  2  3
6  4  21  7  6  5
7  3  14  3  4  5
8  3  19  6  5  17
9  3  19  6  5  4
10  5  18  5  6  7
11  3  20  6  5  4
12  3  9  1  2  3
13  3  16  4  3  13
14  3  15  4  3  14
15  6  21  7  6  19
16  3  17  5  4  16
17  3  18  5  4  15
18  6  21  7  6  20
19  3  14  3  2  12
20  3  12  2  1  10
21  3  14  3  2  1
22  3  13  3  2  12
23  3  14  3  2  11
24  3  12  2  3  4
25  5  17  5  6  7
26  3  16  4  3  2
27  3  15  4  3  2
28  3  13  3  4  5
29  3  13  3  2  11
30  3  16  4  3  14
31  3  15  4  3  13
32  3  17  5  4  15
33  3  11  2  1  8
34  3  12  2  1  9
35  3  20  6  5  18
36  3  20  6  5  17
37  3  19  6  5  18
38  3  10  1  2  3
39  3  18  5  4  16
40  3  11  2  3  4
41  3  13  3  2  1
42  3  15  4  5  6
43  3  12  2  1  8
44  3  18  5  4  3
45  3  11  2  1  9
46  3  17  5  4  3
47  3  11  2  1  10
48  3  16  4  5  6

Impropers

1  1  1  9  8  2
2  1  1  10  8  2
3  1  2  1  11  3
4  1  2  1  3  12
5  1  3  2  4  13
6  1  3  2  4  14
7  1  4  3  5  15
8  1  4  3  5  16
9  1  5  17  4  6
10  1  5  18  4  6
11  1  6  19  5  7
12  1  6  20  5  7
