LAMMPS data file Created by LigParGen - (Written by Leela S. Dodda)

      21 atoms
      20 bonds
      37 angles
      48 dihedrals
      12 impropers
 
      21 atom types
      20 bond types
      37 angle types
      48 dihedral types
      12 improper types
 
   -5.344570    44.655430 xlo xhi
   -0.176950    49.823050 ylo yhi
   -1.027190    48.972810 zlo zhi

Masses

       1     12.011  
       2     12.011  
       3     12.011  
       4     12.011  
       5     12.011  
       6     12.011  
       7     32.060  
       8      1.008  
       9      1.008  
      10      1.008  
      11      1.008  
      12      1.008  
      13      1.008  
      14      1.008  
      15      1.008  
      16      1.008  
      17      1.008  
      18      1.008  
      19      1.008  
      20      1.008  
      21      1.008  

Pair Coeffs 

       1      0.066  3.5000000 
       2      0.066  3.5000000 
       3      0.066  3.5000000 
       4      0.066  3.5000000 
       5      0.066  3.5000000 
       6      0.066  3.5000000 
       7      0.425  3.6000000 
       8      0.030  2.5000000 
       9      0.030  2.5000000 
      10      0.030  2.5000000 
      11      0.030  2.5000000 
      12      0.030  2.5000000 
      13      0.030  2.5000000 
      14      0.030  2.5000000 
      15      0.030  2.5000000 
      16      0.030  2.5000000 
      17      0.030  2.5000000 
      18      0.030  2.5000000 
      19      0.030  2.5000000 
      20      0.030  2.5000000 
      21      0.000  0.0000000 

Bond Coeffs 

       1   268.0000     1.5290 
       2   268.0000     1.5290 
       3   268.0000     1.5290 
       4   268.0000     1.5290 
       5   268.0000     1.5290 
       6   222.0000     1.8100 
       7   340.0000     1.0900 
       8   340.0000     1.0900 
       9   340.0000     1.0900 
      10   340.0000     1.0900 
      11   340.0000     1.0900 
      12   340.0000     1.0900 
      13   340.0000     1.0900 
      14   340.0000     1.0900 
      15   340.0000     1.0900 
      16   340.0000     1.0900 
      17   340.0000     1.0900 
      18   340.0000     1.0900 
      19   340.0000     1.0900 
      20   274.0000     1.3360 

Angle Coeffs 

       1     58.350    112.700
       2     58.350    112.700
       3     58.350    112.700
       4     58.350    112.700
       5     50.000    108.600
       6     37.500    110.700
       7     37.500    110.700
       8     37.500    110.700
       9     37.500    110.700
      10     37.500    110.700
      11     37.500    110.700
      12     37.500    110.700
      13     37.500    110.700
      14     37.500    110.700
      15     37.500    110.700
      16     37.500    110.700
      17     37.500    110.700
      18     37.500    110.700
      19     44.000     96.000
      20     33.000    107.800
      21     33.000    107.800
      22     33.000    107.800
      23     33.000    107.800
      24     37.500    110.700
      25     37.500    110.700
      26     33.000    107.800
      27     37.500    110.700
      28     35.000    109.500
      29     37.500    110.700
      30     33.000    107.800
      31     37.500    110.700
      32     33.000    107.800
      33     33.000    107.800
      34     37.500    110.700
      35     37.500    110.700
      36     35.000    109.500
      37     37.500    110.700

Dihedral Coeffs  

       1      1.300     -0.200      0.200      0.000 
       2      1.300     -0.200      0.200      0.000 
       3      1.300     -0.200      0.200      0.000 
       4      1.262     -0.198      0.465      0.000 
       5      0.000      0.000      0.300      0.000 
       6     -0.759     -0.282      0.680      0.000 
       7      0.000      0.000      0.300      0.000 
       8      0.000      0.000      0.300      0.000 
       9      0.000      0.000      0.300      0.000 
      10      0.000      0.000      0.452      0.000 
      11      0.000      0.000      0.300      0.000 
      12      0.000      0.000      0.300      0.000 
      13      0.000      0.000      0.300      0.000 
      14      0.000      0.000      0.300      0.000 
      15      0.000      0.000      0.480      0.000 
      16      0.000      0.000      0.300      0.000 
      17      0.000      0.000      0.300      0.000 
      18      0.000      0.000      0.480      0.000 
      19      0.000      0.000      0.300      0.000 
      20      0.000      0.000      0.300      0.000 
      21      0.000      0.000      0.300      0.000 
      22      0.000      0.000      0.300      0.000 
      23      0.000      0.000      0.300      0.000 
      24      0.000      0.000      0.300      0.000 
      25      0.000      0.000      0.452      0.000 
      26      0.000      0.000      0.300      0.000 
      27      0.000      0.000      0.300      0.000 
      28      0.000      0.000      0.300      0.000 
      29      0.000      0.000      0.300      0.000 
      30      0.000      0.000      0.300      0.000 
      31      0.000      0.000      0.300      0.000 
      32      0.000      0.000      0.300      0.000 
      33      0.000      0.000      0.300      0.000 
      34      0.000      0.000      0.300      0.000 
      35      0.000      0.000      0.300      0.000 
      36      0.000      0.000      0.300      0.000 
      37      0.000      0.000      0.300      0.000 
      38      0.000      0.000      0.300      0.000 
      39      0.000      0.000      0.300      0.000 
      40      0.000      0.000      0.300      0.000 
      41      0.000      0.000      0.300      0.000 
      42      0.000      0.000      0.300      0.000 
      43      0.000      0.000      0.300      0.000 
      44      0.000      0.000      0.300      0.000 
      45      0.000      0.000      0.300      0.000 
      46      0.000      0.000      0.300      0.000 
      47      0.000      0.000      0.300      0.000 
      48      0.000      0.000      0.300      0.000 

Improper Coeffs 

       1      0.000      -1       2 
       2      0.000      -1       2 
       3      0.000      -1       2 
       4      0.000      -1       2 
       5      0.000      -1       2 
       6      0.000      -1       2 
       7      0.000      -1       2 
       8      0.000      -1       2 
       9      0.000      -1       2 
      10      0.000      -1       2 
      11      0.000      -1       2 
      12      0.000      -1       2 

Atoms 

     1      1      1 -0.23900000    1.000  1.00000  0.00000
     2      1      2 -0.17920000   -0.520  1.00000  0.00000
     3      1      3 -0.17760000   -1.079  1.00000  1.42275
     4      1      4 -0.18020000   -2.608  0.99820  1.41946
     5      1      5 -0.18360000   -3.166  0.99640  2.84529
     6      1      6 0.01270000   -4.692  0.99280  2.83384
     7      1      7 -0.44170000   -5.345  0.99284  4.52841
     8      1      8 0.08190000    1.378  1.00130 -1.02719
     9      1      9 0.08190000    1.391  0.11121  0.50521
    10      1     10 0.08190000    1.391  1.88769  0.50756
    11      1     11 0.08890000   -0.879  0.11664 -0.54100
    12      1     12 0.08890000   -0.879  1.88337 -0.54101
    13      1     13 0.09120000   -0.713  1.88344  1.96007
    14      1     14 0.09120000   -0.711  0.11788  1.96091
    15      1     15 0.09120000   -2.973  0.11472  0.88116
    16      1     16 0.09120000   -2.975  1.88167  0.88258
    17      1     17 0.10170000   -2.796  1.88199  3.37696
    18      1     18 0.10170000   -2.791  0.11185  3.37541
    19      1     19 0.12580000   -5.072  0.10614  2.31618
    20      1     20 0.12580000   -5.075  1.87888  2.31741
    21      1     21 0.14520000   -4.805 -0.17695  4.90187

Bonds 

     1      1      2      1
     2      2      3      2
     3      3      4      3
     4      4      5      4
     5      5      6      5
     6      6      7      6
     7      7      8      1
     8      8      9      1
     9      9     10      1
    10     10     11      2
    11     11     12      2
    12     12     13      3
    13     13     14      3
    14     14     15      4
    15     15     16      4
    16     16     17      5
    17     17     18      5
    18     18     19      6
    19     19     20      6
    20     20     21      7

Angles 

     1      1      1      2      3
     2      2      2      3      4
     3      3      3      4      5
     4      4      4      5      6
     5      5      5      6      7
     6      6      2      1      8
     7      7      2      1      9
     8      8      2      1     10
     9      9      1      2     11
    10     10      1      2     12
    11     11      2      3     13
    12     12      2      3     14
    13     13      3      4     15
    14     14      3      4     16
    15     15      4      5     17
    16     16      4      5     18
    17     17      5      6     19
    18     18      5      6     20
    19     19      6      7     21
    20     20     17      5     18
    21     21     15      4     16
    22     22      8      1     10
    23     23     11      2     12
    24     24      6      5     17
    25     25      5      4     16
    26     26      8      1      9
    27     27      3      2     11
    28     28      7      6     19
    29     29      5      4     15
    30     30     13      3     14
    31     31      3      2     12
    32     32     19      6     20
    33     33      9      1     10
    34     34      4      3     14
    35     35      4      3     13
    36     36      7      6     20
    37     37      6      5     18

Dihedrals

     1      1      4      3      2      1 
     2      2      5      4      3      2 
     3      3      6      5      4      3 
     4      4      7      6      5      4 
     5      5      8      1      2      3 
     6      6     21      7      6      5 
     7      7     14      3      4      5 
     8      8     19      6      5     17 
     9      9     19      6      5      4 
    10     10     18      5      6      7 
    11     11     20      6      5      4 
    12     12      9      1      2      3 
    13     13     16      4      3     13 
    14     14     15      4      3     14 
    15     15     21      7      6     19 
    16     16     17      5      4     16 
    17     17     18      5      4     15 
    18     18     21      7      6     20 
    19     19     14      3      2     12 
    20     20     12      2      1     10 
    21     21     14      3      2      1 
    22     22     13      3      2     12 
    23     23     14      3      2     11 
    24     24     12      2      3      4 
    25     25     17      5      6      7 
    26     26     16      4      3      2 
    27     27     15      4      3      2 
    28     28     13      3      4      5 
    29     29     13      3      2     11 
    30     30     16      4      3     14 
    31     31     15      4      3     13 
    32     32     17      5      4     15 
    33     33     11      2      1      8 
    34     34     12      2      1      9 
    35     35     20      6      5     18 
    36     36     20      6      5     17 
    37     37     19      6      5     18 
    38     38     10      1      2      3 
    39     39     18      5      4     16 
    40     40     11      2      3      4 
    41     41     13      3      2      1 
    42     42     15      4      5      6 
    43     43     12      2      1      8 
    44     44     18      5      4      3 
    45     45     11      2      1      9 
    46     46     17      5      4      3 
    47     47     11      2      1     10 
    48     48     16      4      5      6 

Impropers

     1      1      1      9      8      2 
     2      2      1     10      8      2 
     3      3      2      1     11      3 
     4      4      2      1      3     12 
     5      5      3      2      4     13 
     6      6      3      2      4     14 
     7      7      4      3      5     15 
     8      8      4      3      5     16 
     9      9      5     17      4      6 
    10     10      5     18      4      6 
    11     11      6     19      5      7 
    12     12      6     20      5      7 

