LAMMPS data file Created by LigParGen - (Written by Leela S. Dodda)

      50 atoms
      49 bonds
      96 angles
     135 dihedrals
      32 impropers
 
      50 atom types
      49 bond types
      96 angle types
     135 dihedral types
      32 improper types
 
  -15.601320    34.398680 xlo xhi
    0.101600    50.101600 ylo yhi
   -1.026370    48.973630 zlo zhi

Masses

       1     12.011  
       2     12.011  
       3     12.011  
       4     12.011  
       5     12.011  
       6     12.011  
       7     12.011  
       8     12.011  
       9     12.011  
      10     12.011  
      11     12.011  
      12     12.011  
      13     12.011  
      14     12.011  
      15     12.011  
      16     12.011  
      17     32.060  
      18      1.008  
      19      1.008  
      20      1.008  
      21      1.008  
      22      1.008  
      23      1.008  
      24      1.008  
      25      1.008  
      26      1.008  
      27      1.008  
      28      1.008  
      29      1.008  
      30      1.008  
      31      1.008  
      32      1.008  
      33      1.008  
      34      1.008  
      35      1.008  
      36      1.008  
      37      1.008  
      38      1.008  
      39      1.008  
      40      1.008  
      41      1.008  
      42      1.008  
      43      1.008  
      44      1.008  
      45      1.008  
      46      1.008  
      47      1.008  
      48      1.008  
      49      1.008  
      50      1.008  

Pair Coeffs 

       1      0.066  3.5000000 
       2      0.066  3.5000000 
       3      0.066  3.5000000 
       4      0.066  3.5000000 
       5      0.066  3.5000000 
       6      0.066  3.5000000 
       7      0.066  3.5000000 
       8      0.066  3.5000000 
       9      0.066  3.5000000 
      10      0.066  3.5000000 
      11      0.066  3.5000000 
      12      0.066  3.5000000 
      13      0.066  3.5000000 
      14      0.066  3.5000000 
      15      0.066  3.5000000 
      16      0.066  3.5000000 
      17      0.355  3.5500000 
      18      0.030  2.5000000 
      19      0.030  2.5000000 
      20      0.030  2.5000000 
      21      0.030  2.5000000 
      22      0.030  2.5000000 
      23      0.030  2.5000000 
      24      0.030  2.5000000 
      25      0.030  2.5000000 
      26      0.030  2.5000000 
      27      0.030  2.5000000 
      28      0.030  2.5000000 
      29      0.030  2.5000000 
      30      0.030  2.5000000 
      31      0.030  2.5000000 
      32      0.030  2.5000000 
      33      0.030  2.5000000 
      34      0.030  2.5000000 
      35      0.030  2.5000000 
      36      0.030  2.5000000 
      37      0.030  2.5000000 
      38      0.030  2.5000000 
      39      0.030  2.5000000 
      40      0.030  2.5000000 
      41      0.030  2.5000000 
      42      0.030  2.5000000 
      43      0.030  2.5000000 
      44      0.030  2.5000000 
      45      0.030  2.5000000 
      46      0.030  2.5000000 
      47      0.030  2.5000000 
      48      0.030  2.5000000 
      49      0.030  2.5000000 
      50      0.030  2.5000000 

Bond Coeffs 

       1   268.0000     1.5290 
       2   268.0000     1.5290 
       3   268.0000     1.5290 
       4   268.0000     1.5290 
       5   268.0000     1.5290 
       6   268.0000     1.5290 
       7   268.0000     1.5290 
       8   268.0000     1.5290 
       9   268.0000     1.5290 
      10   268.0000     1.5290 
      11   268.0000     1.5290 
      12   268.0000     1.5290 
      13   268.0000     1.5290 
      14   268.0000     1.5290 
      15   268.0000     1.5290 
      16   340.0000     1.7700 
      17   340.0000     1.0900 
      18   340.0000     1.0900 
      19   340.0000     1.0900 
      20   340.0000     1.0900 
      21   340.0000     1.0900 
      22   340.0000     1.0900 
      23   340.0000     1.0900 
      24   340.0000     1.0900 
      25   340.0000     1.0900 
      26   340.0000     1.0900 
      27   340.0000     1.0900 
      28   340.0000     1.0900 
      29   340.0000     1.0900 
      30   340.0000     1.0900 
      31   340.0000     1.0900 
      32   340.0000     1.0900 
      33   340.0000     1.0900 
      34   340.0000     1.0900 
      35   340.0000     1.0900 
      36   340.0000     1.0900 
      37   340.0000     1.0900 
      38   340.0000     1.0900 
      39   340.0000     1.0900 
      40   340.0000     1.0900 
      41   340.0000     1.0900 
      42   340.0000     1.0900 
      43   340.0000     1.0900 
      44   340.0000     1.0900 
      45   340.0000     1.0900 
      46   340.0000     1.0900 
      47   340.0000     1.0900 
      48   340.0000     1.0900 
      49   340.0000     1.0900 

Angle Coeffs 

       1     58.350    112.700
       2     58.350    112.700
       3     58.350    112.700
       4     58.350    112.700
       5     58.350    112.700
       6     58.350    112.700
       7     58.350    112.700
       8     58.350    112.700
       9     58.350    112.700
      10     58.350    112.700
      11     58.350    112.700
      12     58.350    112.700
      13     58.350    112.700
      14     58.350    112.700
      15     50.000    108.600
      16     37.500    110.700
      17     37.500    110.700
      18     37.500    110.700
      19     37.500    110.700
      20     37.500    110.700
      21     37.500    110.700
      22     37.500    110.700
      23     37.500    110.700
      24     37.500    110.700
      25     37.500    110.700
      26     37.500    110.700
      27     37.500    110.700
      28     37.500    110.700
      29     37.500    110.700
      30     37.500    110.700
      31     37.500    110.700
      32     37.500    110.700
      33     37.500    110.700
      34     37.500    110.700
      35     37.500    110.700
      36     37.500    110.700
      37     37.500    110.700
      38     37.500    110.700
      39     37.500    110.700
      40     37.500    110.700
      41     37.500    110.700
      42     37.500    110.700
      43     37.500    110.700
      44     37.500    110.700
      45     37.500    110.700
      46     37.500    110.700
      47     37.500    110.700
      48     37.500    110.700
      49     33.000    107.800
      50     37.500    110.700
      51     33.000    107.800
      52     37.500    110.700
      53     33.000    107.800
      54     37.500    110.700
      55     35.000    109.500
      56     37.500    110.700
      57     33.000    107.800
      58     33.000    107.800
      59     33.000    107.800
      60     33.000    107.800
      61     37.500    110.700
      62     33.000    107.800
      63     37.500    110.700
      64     37.500    110.700
      65     37.500    110.700
      66     37.500    110.700
      67     37.500    110.700
      68     33.000    107.800
      69     33.000    107.800
      70     37.500    110.700
      71     33.000    107.800
      72     33.000    107.800
      73     37.500    110.700
      74     37.500    110.700
      75     33.000    107.800
      76     33.000    107.800
      77     37.500    110.700
      78     37.500    110.700
      79     33.000    107.800
      80     33.000    107.800
      81     33.000    107.800
      82     37.500    110.700
      83     37.500    110.700
      84     37.500    110.700
      85     37.500    110.700
      86     37.500    110.700
      87     37.500    110.700
      88     37.500    110.700
      89     37.500    110.700
      90     37.500    110.700
      91     37.500    110.700
      92     35.000    109.500
      93     37.500    110.700
      94     37.500    110.700
      95     33.000    107.800
      96     37.500    110.700

Dihedral Coeffs  

       1      1.300     -0.200      0.200      0.000 
       2      1.300     -0.200      0.200      0.000 
       3      1.300     -0.200      0.200      0.000 
       4      1.300     -0.200      0.200      0.000 
       5      1.300     -0.200      0.200      0.000 
       6      1.300     -0.200      0.200      0.000 
       7      1.300     -0.200      0.200      0.000 
       8      1.300     -0.200      0.200      0.000 
       9      1.300     -0.200      0.200      0.000 
      10      1.300     -0.200      0.200      0.000 
      11      1.300     -0.200      0.200      0.000 
      12      1.300     -0.200      0.200      0.000 
      13      1.300     -0.200      0.200      0.000 
      14      1.262     -0.198      0.465      0.000 
      15      0.000      0.000      0.300      0.000 
      16      0.000      0.000      0.300      0.000 
      17      0.000      0.000      0.300      0.000 
      18      0.000      0.000      0.300      0.000 
      19      0.000      0.000      0.300      0.000 
      20      0.000      0.000      0.300      0.000 
      21      0.000      0.000      0.300      0.000 
      22      0.000      0.000      0.300      0.000 
      23      0.000      0.000      0.300      0.000 
      24      0.000      0.000      0.300      0.000 
      25      0.000      0.000      0.300      0.000 
      26      0.000      0.000      0.300      0.000 
      27      0.000      0.000      0.300      0.000 
      28      0.000      0.000      0.452      0.000 
      29      0.000      0.000      0.300      0.000 
      30      0.000      0.000      0.300      0.000 
      31      0.000      0.000      0.300      0.000 
      32      0.000      0.000      0.300      0.000 
      33      0.000      0.000      0.300      0.000 
      34      0.000      0.000      0.300      0.000 
      35      0.000      0.000      0.300      0.000 
      36      0.000      0.000      0.300      0.000 
      37      0.000      0.000      0.300      0.000 
      38      0.000      0.000      0.300      0.000 
      39      0.000      0.000      0.300      0.000 
      40      0.000      0.000      0.300      0.000 
      41      0.000      0.000      0.300      0.000 
      42      0.000      0.000      0.300      0.000 
      43      0.000      0.000      0.300      0.000 
      44      0.000      0.000      0.300      0.000 
      45      0.000      0.000      0.300      0.000 
      46      0.000      0.000      0.300      0.000 
      47      0.000      0.000      0.300      0.000 
      48      0.000      0.000      0.300      0.000 
      49      0.000      0.000      0.300      0.000 
      50      0.000      0.000      0.300      0.000 
      51      0.000      0.000      0.300      0.000 
      52      0.000      0.000      0.300      0.000 
      53      0.000      0.000      0.300      0.000 
      54      0.000      0.000      0.300      0.000 
      55      0.000      0.000      0.300      0.000 
      56      0.000      0.000      0.300      0.000 
      57      0.000      0.000      0.300      0.000 
      58      0.000      0.000      0.300      0.000 
      59      0.000      0.000      0.300      0.000 
      60      0.000      0.000      0.300      0.000 
      61      0.000      0.000      0.300      0.000 
      62      0.000      0.000      0.300      0.000 
      63      0.000      0.000      0.300      0.000 
      64      0.000      0.000      0.300      0.000 
      65      0.000      0.000      0.300      0.000 
      66      0.000      0.000      0.300      0.000 
      67      0.000      0.000      0.300      0.000 
      68      0.000      0.000      0.300      0.000 
      69      0.000      0.000      0.300      0.000 
      70      0.000      0.000      0.300      0.000 
      71      0.000      0.000      0.300      0.000 
      72      0.000      0.000      0.300      0.000 
      73      0.000      0.000      0.300      0.000 
      74      0.000      0.000      0.300      0.000 
      75      0.000      0.000      0.300      0.000 
      76      0.000      0.000      0.300      0.000 
      77      0.000      0.000      0.300      0.000 
      78      0.000      0.000      0.300      0.000 
      79      0.000      0.000      0.452      0.000 
      80      0.000      0.000      0.300      0.000 
      81      0.000      0.000      0.300      0.000 
      82      0.000      0.000      0.300      0.000 
      83      0.000      0.000      0.300      0.000 
      84      0.000      0.000      0.300      0.000 
      85      0.000      0.000      0.300      0.000 
      86      0.000      0.000      0.300      0.000 
      87      0.000      0.000      0.300      0.000 
      88      0.000      0.000      0.300      0.000 
      89      0.000      0.000      0.300      0.000 
      90      0.000      0.000      0.300      0.000 
      91      0.000      0.000      0.300      0.000 
      92      0.000      0.000      0.300      0.000 
      93      0.000      0.000      0.300      0.000 
      94      0.000      0.000      0.300      0.000 
      95      0.000      0.000      0.300      0.000 
      96      0.000      0.000      0.300      0.000 
      97      0.000      0.000      0.300      0.000 
      98      0.000      0.000      0.300      0.000 
      99      0.000      0.000      0.300      0.000 
     100      0.000      0.000      0.300      0.000 
     101      0.000      0.000      0.300      0.000 
     102      0.000      0.000      0.300      0.000 
     103      0.000      0.000      0.300      0.000 
     104      0.000      0.000      0.300      0.000 
     105      0.000      0.000      0.300      0.000 
     106      0.000      0.000      0.300      0.000 
     107      0.000      0.000      0.300      0.000 
     108      0.000      0.000      0.300      0.000 
     109      0.000      0.000      0.300      0.000 
     110      0.000      0.000      0.300      0.000 
     111      0.000      0.000      0.300      0.000 
     112      0.000      0.000      0.300      0.000 
     113      0.000      0.000      0.300      0.000 
     114      0.000      0.000      0.300      0.000 
     115      0.000      0.000      0.300      0.000 
     116      0.000      0.000      0.300      0.000 
     117      0.000      0.000      0.300      0.000 
     118      0.000      0.000      0.300      0.000 
     119      0.000      0.000      0.300      0.000 
     120      0.000      0.000      0.300      0.000 
     121      0.000      0.000      0.300      0.000 
     122      0.000      0.000      0.300      0.000 
     123      0.000      0.000      0.300      0.000 
     124      0.000      0.000      0.300      0.000 
     125      0.000      0.000      0.300      0.000 
     126      0.000      0.000      0.300      0.000 
     127      0.000      0.000      0.300      0.000 
     128      0.000      0.000      0.300      0.000 
     129      0.000      0.000      0.300      0.000 
     130      0.000      0.000      0.300      0.000 
     131      0.000      0.000      0.300      0.000 
     132      0.000      0.000      0.300      0.000 
     133      0.000      0.000      0.300      0.000 
     134      0.000      0.000      0.300      0.000 
     135      0.000      0.000      0.300      0.000 

Improper Coeffs 

       1      0.000      -1       2 
       2      0.000      -1       2 
       3      0.000      -1       2 
       4      0.000      -1       2 
       5      0.000      -1       2 
       6      0.000      -1       2 
       7      0.000      -1       2 
       8      0.000      -1       2 
       9      0.000      -1       2 
      10      0.000      -1       2 
      11      0.000      -1       2 
      12      0.000      -1       2 
      13      0.000      -1       2 
      14      0.000      -1       2 
      15      0.000      -1       2 
      16      0.000      -1       2 
      17      0.000      -1       2 
      18      0.000      -1       2 
      19      0.000      -1       2 
      20      0.000      -1       2 
      21      0.000      -1       2 
      22      0.000      -1       2 
      23      0.000      -1       2 
      24      0.000      -1       2 
      25      0.000      -1       2 
      26      0.000      -1       2 
      27      0.000      -1       2 
      28      0.000      -1       2 
      29      0.000      -1       2 
      30      0.000      -1       2 
      31      0.000      -1       2 
      32      0.000      -1       2 

Atoms 

     1      1      1 -0.20920000    1.000  1.00000  0.00000
     2      1      2 -0.15760000   -0.520  1.00000  0.00000
     3      1      3 -0.15680000   -1.071  1.00000  1.42377
     4      1      4 -0.15740000   -2.599  1.00180  1.42541
     5      1      5 -0.15740000   -3.141  0.99998  2.85297
     6      1      6 -0.15720000   -4.668  0.99997  2.85951
     7      1      7 -0.15770000   -5.205  0.99996  4.28816
     8      1      8 -0.15760000   -6.732  0.99815  4.29633
     9      1      9 -0.15760000   -7.268  0.99994  5.72524
    10      1     10 -0.15760000   -8.794  0.99632  5.73341
    11      1     11 -0.15790000   -9.332  0.99991  7.16165
    12      1     12 -0.15810000  -10.859  0.99449  7.16984
    13      1     13 -0.15670000  -11.397  0.99627  8.59874
    14      1     14 -0.16860000  -12.924  0.98905  8.60857
    15      1     15 -0.15060000  -13.467  0.99263 10.04049
    16      1     16 -0.08590000  -15.000  0.98716 10.04214
    17      1     17 -0.89790000  -15.601  0.98949 11.77214
    18      1     18 0.06950000    1.379  1.00130 -1.02637
    19      1     19 0.06950000    1.390  0.11128  0.50653
    20      1     20 0.06950000    1.390  1.88730  0.50870
    21      1     21 0.07710000   -0.881  0.11681 -0.53948
    22      1     22 0.07710000   -0.880  1.88371 -0.53979
    23      1     23 0.07820000   -0.703  1.88251  1.96098
    24      1     24 0.07820000   -0.705  0.11610  1.96019
    25      1     25 0.07790000   -2.969  0.11975  0.88892
    26      1     26 0.07790000   -2.967  1.88656  0.89197
    27      1     27 0.07810000   -2.770  1.88246  3.38851
    28      1     28 0.07810000   -2.770  0.11614  3.38627
    29      1     29 0.07780000   -5.039  0.11647  2.32568
    30      1     30 0.07780000   -5.039  1.88331  2.32579
    31      1     31 0.07790000   -4.835  1.88404  4.82156
    32      1     32 0.07790000   -4.833  0.11725  4.82232
    33      1     33 0.07730000   -7.101  0.11305  3.76425
    34      1     34 0.07730000   -7.103  1.88055  3.76124
    35      1     35 0.07750000   -6.897  1.88498  6.25608
    36      1     36 0.07750000   -6.893  0.11819  6.25959
    37      1     37 0.07610000   -9.163  0.11063  5.20189
    38      1     38 0.07610000   -9.167  1.87734  5.19683
    39      1     39 0.07640000   -8.962  1.88603  7.69122
    40      1     40 0.07640000   -8.957  0.11945  7.69794
    41      1     41 0.07320000  -11.226  0.10878  6.63758
    42      1     42 0.07320000  -11.233  1.87500  6.63287
    43      1     43 0.07450000  -11.028  1.88285  9.12930
    44      1     44 0.07450000  -11.020  0.11670  9.13453
    45      1     45 0.06420000  -13.290  0.10160  8.07797
    46      1     46 0.06420000  -13.298  1.86830  8.07043
    47      1     47 0.07850000  -13.084  1.87984 10.56292
    48      1     48 0.07850000  -13.078  0.11233 10.56967
    49      1     49 0.03180000  -15.349  0.10936  9.48440
    50      1     50 0.03180000  -15.355  1.85958  9.47985

Bonds 

     1      1      2      1
     2      2      3      2
     3      3      4      3
     4      4      5      4
     5      5      6      5
     6      6      7      6
     7      7      8      7
     8      8      9      8
     9      9     10      9
    10     10     11     10
    11     11     12     11
    12     12     13     12
    13     13     14     13
    14     14     15     14
    15     15     16     15
    16     16     17     16
    17     17     18      1
    18     18     19      1
    19     19     20      1
    20     20     21      2
    21     21     22      2
    22     22     23      3
    23     23     24      3
    24     24     25      4
    25     25     26      4
    26     26     27      5
    27     27     28      5
    28     28     29      6
    29     29     30      6
    30     30     31      7
    31     31     32      7
    32     32     33      8
    33     33     34      8
    34     34     35      9
    35     35     36      9
    36     36     37     10
    37     37     38     10
    38     38     39     11
    39     39     40     11
    40     40     41     12
    41     41     42     12
    42     42     43     13
    43     43     44     13
    44     44     45     14
    45     45     46     14
    46     46     47     15
    47     47     48     15
    48     48     49     16
    49     49     50     16

Angles 

     1      1      1      2      3
     2      2      2      3      4
     3      3      3      4      5
     4      4      4      5      6
     5      5      5      6      7
     6      6      6      7      8
     7      7      7      8      9
     8      8      8      9     10
     9      9      9     10     11
    10     10     10     11     12
    11     11     11     12     13
    12     12     12     13     14
    13     13     13     14     15
    14     14     14     15     16
    15     15     15     16     17
    16     16      2      1     18
    17     17      2      1     19
    18     18      2      1     20
    19     19      1      2     21
    20     20      1      2     22
    21     21      2      3     23
    22     22      2      3     24
    23     23      3      4     25
    24     24      3      4     26
    25     25      4      5     27
    26     26      4      5     28
    27     27      5      6     29
    28     28      5      6     30
    29     29      6      7     31
    30     30      6      7     32
    31     31      7      8     33
    32     32      7      8     34
    33     33      8      9     35
    34     34      8      9     36
    35     35      9     10     37
    36     36      9     10     38
    37     37     10     11     39
    38     38     10     11     40
    39     39     11     12     41
    40     40     11     12     42
    41     41     12     13     43
    42     42     12     13     44
    43     43     13     14     45
    44     44     13     14     46
    45     45     14     15     47
    46     46     14     15     48
    47     47     15     16     49
    48     48     15     16     50
    49     49     47     15     48
    50     50     11     10     38
    51     51     25      4     26
    52     52      4      3     23
    53     53     41     12     42
    54     54      4      3     24
    55     55     17     16     50
    56     56      5      4     26
    57     57     27      5     28
    58     58     35      9     36
    59     59     39     11     40
    60     60     18      1     19
    61     61      9      8     34
    62     62     31      7     32
    63     63     12     11     39
    64     64      8      7     32
    65     65      5      4     25
    66     66      8      7     31
    67     67     15     14     46
    68     68     21      2     22
    69     69     45     14     46
    70     70     13     12     42
    71     71     33      8     34
    72     72     23      3     24
    73     73     16     15     47
    74     74      6      5     27
    75     75     49     16     50
    76     76     43     13     44
    77     77      7      6     29
    78     78     10      9     35
    79     79     29      6     30
    80     80     18      1     20
    81     81     37     10     38
    82     82     15     14     45
    83     83     13     12     41
    84     84      9      8     33
    85     85      3      2     21
    86     86      7      6     30
    87     87     16     15     48
    88     88     14     13     43
    89     89      3      2     22
    90     90      6      5     28
    91     91     12     11     40
    92     92     17     16     49
    93     93     11     10     37
    94     94     10      9     36
    95     95     19      1     20
    96     96     14     13     44

Dihedrals

     1      1      4      3      2      1 
     2      2      5      4      3      2 
     3      3      6      5      4      3 
     4      4      7      6      5      4 
     5      5      8      7      6      5 
     6      6      9      8      7      6 
     7      7     10      9      8      7 
     8      8     11     10      9      8 
     9      9     12     11     10      9 
    10     10     13     12     11     10 
    11     11     14     13     12     11 
    12     12     15     14     13     12 
    13     13     16     15     14     13 
    14     14     17     16     15     14 
    15     15     18      1      2      3 
    16     16     34      8      7      6 
    17     17     50     16     15     48 
    18     18     31      7      6      5 
    19     19     31      7      8      9 
    20     20     38     10      9      8 
    21     21     35      9     10     11 
    22     22     29      6      5      4 
    23     23     43     13     12     41 
    24     24     47     15     14     13 
    25     25     26      4      3     23 
    26     26     25      4      3     24 
    27     27     19      1      2      3 
    28     28     48     15     16     17 
    29     29     33      8      7      6 
    30     30     32      7      6     29 
    31     31     31      7      6     30 
    32     32     25      4      5      6 
    33     33     32      7      8      9 
    34     34     28      5      4      3 
    35     35     23      3      4      5 
    36     36     24      3      2     22 
    37     37     44     13     12     41 
    38     38     43     13     12     42 
    39     39     45     14     13     44 
    40     40     36      9      8      7 
    41     41     29      6      5     27 
    42     42     22      2      3      4 
    43     43     49     16     15     14 
    44     44     24      3      2     21 
    45     45     23      3      2     22 
    46     46     22      2      1     18 
    47     47     26      4      3      2 
    48     48     28      5      6      7 
    49     49     33      8      7     32 
    50     50     34      8      7     31 
    51     51     30      6      7      8 
    52     52     40     11     12     13 
    53     53     22      2      1     20 
    54     54     46     14     13     43 
    55     55     36      9     10     11 
    56     56     21      2      1     18 
    57     57     37     10      9     35 
    58     58     38     10      9     36 
    59     59     32      7      6     30 
    60     60     39     11     10     38 
    61     61     44     13     14     15 
    62     62     40     11     10     38 
    63     63     35      9      8      7 
    64     64     35      9      8     33 
    65     65     41     12     11     10 
    66     66     39     11     10      9 
    67     67     30      6      5      4 
    68     68     27      5      6      7 
    69     69     40     11     10     37 
    70     70     37     10      9      8 
    71     71     42     12     11     39 
    72     72     41     12     11     40 
    73     73     48     15     14     46 
    74     74     24      3      4      5 
    75     75     48     15     14     13 
    76     76     41     12     11     39 
    77     77     42     12     11     40 
    78     78     45     14     15     16 
    79     79     47     15     16     17 
    80     80     21      2      1     20 
    81     81     22      2      1     19 
    82     82     48     15     14     45 
    83     83     47     15     14     46 
    84     84     27      5      4     25 
    85     85     33      8      7     31 
    86     86     39     11     12     13 
    87     87     42     12     13     14 
    88     88     29      6      7      8 
    89     89     32      7      6      5 
    90     90     36      9      8     34 
    91     91     31      7      6     29 
    92     92     45     14     13     43 
    93     93     25      4      3     23 
    94     94     50     16     15     14 
    95     95     34      8      9     10 
    96     96     30      6      5     28 
    97     97     23      3      2      1 
    98     98     42     12     11     10 
    99     99     43     13     12     11 
   100    100     23      3      2     21 
   101    101     34      8      7     32 
   102    102     21      2      3      4 
   103    103     36      9      8     33 
   104    104     35      9      8     34 
   105    105     24      3      2      1 
   106    106     20      1      2      3 
   107    107     38     10      9     35 
   108    108     37     10      9     36 
   109    109     28      5      4     26 
   110    110     28      5      4     25 
   111    111     27      5      4     26 
   112    112     49     16     15     47 
   113    113     26      4      5      6 
   114    114     44     13     12     42 
   115    115     46     14     13     44 
   116    116     39     11     10     37 
   117    117     27      5      4      3 
   118    118     45     14     13     12 
   119    119     40     11     10      9 
   120    120     37     10     11     12 
   121    121     21      2      1     19 
   122    122     29      6      5     28 
   123    123     30      6      5     27 
   124    124     47     15     14     45 
   125    125     25      4      3      2 
   126    126     41     12     13     14 
   127    127     44     13     12     11 
   128    128     33      8      9     10 
   129    129     26      4      3     24 
   130    130     43     13     14     15 
   131    131     46     14     13     12 
   132    132     46     14     15     16 
   133    133     38     10     11     12 
   134    134     50     16     15     47 
   135    135     49     16     15     48 

Impropers

     1      1      1      2     19     18 
     2      2      1      2     20     18 
     3      3      2      1      3     21 
     4      4      2      1      3     22 
     5      5      3      2      4     23 
     6      6      3      2      4     24 