#C16_thiol

51 atoms
4 atom types

50 bonds
4 bond types

97 angles
6 angle types

138 dihedrals
6 dihedral types

32 impropers
1 improper types

-15.60924  34.39076  xlo xhi
-0.16543  49.83457  ylo yhi
-1.02618  48.97382  zlo zhi

Masses

1  12.011
2  32.06
3  1.008
4  1.008

Pair Coeffs

1  0.066  3.5
2  0.425  3.6
3  0.03  2.5
4  0.0  0.0

Bond Coeffs

1  268.0  1.529
2  222.0  1.81
3  340.0  1.09
4  274.0  1.336

Angle Coeffs

1  58.35  112.7
2  50.0  108.6
3  37.5  110.7
4  44.0  96.0
5  33.0  107.8
6  35.0  109.5

Dihedral Coeffs

1  1.3  -0.2  0.2  0.0
2  1.262  -0.198  0.465  0.0
3  0.0  0.0  0.3  0.0
4  -0.759  -0.282  0.68  0.0
5  0.0  0.0  0.452  0.0
6  0.0  0.0  0.48  0.0

Improper Coeffs

1  0.0  -1.0  2.0

Atoms # full

1  1  1  -0.2388   1   1   0
2  1  1  -0.1794  -0.52   1   0
3  1  1  -0.1787  -1.071   1   1.42402
4  1  1  -0.1793  -2.598   1.0018   1.42565
5  1  1  -0.1794  -3.141   0.99998   2.85313
6  1  1  -0.1794  -4.667   0.99997   2.85967
7  1  1  -0.1795  -5.205   0.99996   4.28854
8  1  1  -0.1793  -6.731   1.00175   4.29508
9  1  1  -0.1792  -7.267   0.99993   5.72421
10  1  1  -0.1794  -8.792   0.99992   5.73074
11  1  1  -0.1795  -9.329   0.9999   7.15983
12  1  1  -0.1791  -10.855   1.00169   7.16963
13  1  1  -0.1787  -11.389   0.99987   8.59938
14  1  1  -0.1804  -12.917   1.00346   8.61247
15  1  1  -0.1839  -13.454   0.99984   10.04383
16  1  1   0.0123  -14.979   1.00164   10.04873
17  1  2  -0.4414  -15.609   0.99518   11.75086
18  1  3   0.0808   1.379   0.9987  -1.02618
19  1  3   0.0808   1.39   0.11091   0.50701
20  1  3   0.0808   1.391   1.88667   0.50807
21  1  3   0.0884  -0.882   0.11694  -0.5394
22  1  3   0.0884  -0.88   1.88315  -0.53945
23  1  3   0.0895  -0.703   1.88253   1.96124
24  1  3   0.0895  -0.705   0.11617   1.9604
25  1  3   0.0894  -2.97   0.12014   0.88941
26  1  3   0.0894  -2.967   1.88653   0.89223
27  1  3   0.0896  -2.771   1.88314   3.38833
28  1  3   0.0896  -2.77   0.11655   3.38733
29  1  3   0.0897  -5.038   0.11656   2.32589
30  1  3   0.0897  -5.038   1.88332   2.32594
31  1  3   0.0898  -4.831   1.88266   4.8223
32  1  3   0.0898  -4.833   0.11604   4.82141
33  1  3   0.0898  -7.103   0.12098   3.75774
34  1  3   0.0898  -7.1   1.88642   3.76287
35  1  3   0.0901  -6.895   1.88307   6.25781
36  1  3   0.0901  -6.895   0.11602   6.25637
37  1  3   0.09  -9.164   0.11641   5.1969
38  1  3   0.09  -9.164   1.88346   5.1969
39  1  3   0.0903  -8.955   1.88298   7.69267
40  1  3   0.0903  -8.956   0.11594   7.69232
41  1  3   0.0904  -11.227   0.11922   6.63487
42  1  3   0.0904  -11.225   1.88605   6.637
43  1  3   0.0915  -11.014   1.8817   9.13339
44  1  3   0.0915  -11.018   0.11488   9.12977
45  1  3   0.0916  -13.289   0.1223   8.07554
46  1  3   0.0916  -13.286   1.88891   8.08086
47  1  3   0.1018  -13.073   1.8828   10.57264
48  1  3   0.1018  -13.075   0.11256   10.56637
49  1  3   0.126  -15.366   0.11806   9.53144
50  1  3   0.126  -15.364   1.89112   9.53998
51  1  4   0.1453  -15.046  -0.16543   12.11726

Bonds

1  1  2  1
2  1  3  2
3  1  4  3
4  1  5  4
5  1  6  5
6  1  7  6
7  1  8  7
8  1  9  8
9  1  10  9
10  1  11  10
11  1  12  11
12  1  13  12
13  1  14  13
14  1  15  14
15  1  16  15
16  2  17  16
17  3  18  1
18  3  19  1
19  3  20  1
20  3  21  2
21  3  22  2
22  3  23  3
23  3  24  3
24  3  25  4
25  3  26  4
26  3  27  5
27  3  28  5
28  3  29  6
29  3  30  6
30  3  31  7
31  3  32  7
32  3  33  8
33  3  34  8
34  3  35  9
35  3  36  9
36  3  37  10
37  3  38  10
38  3  39  11
39  3  40  11
40  3  41  12
41  3  42  12
42  3  43  13
43  3  44  13
44  3  45  14
45  3  46  14
46  3  47  15
47  3  48  15
48  3  49  16
49  3  50  16
50  4  51  17

Angles

1  1  1  2  3
2  1  2  3  4
3  1  3  4  5
4  1  4  5  6
5  1  5  6  7
6  1  6  7  8
7  1  7  8  9
8  1  8  9  10
9  1  9  10  11
10  1  10  11  12
11  1  11  12  13
12  1  12  13  14
13  1  13  14  15
14  1  14  15  16
15  2  15  16  17
16  3  2  1  18
17  3  2  1  19
18  3  2  1  20
19  3  1  2  21
20  3  1  2  22
21  3  2  3  23
22  3  2  3  24
23  3  3  4  25
24  3  3  4  26
25  3  4  5  27
26  3  4  5  28
27  3  5  6  29
28  3  5  6  30
29  3  6  7  31
30  3  6  7  32
31  3  7  8  33
32  3  7  8  34
33  3  8  9  35
34  3  8  9  36
35  3  9  10  37
36  3  9  10  38
37  3  10  11  39
38  3  10  11  40
39  3  11  12  41
40  3  11  12  42
41  3  12  13  43
42  3  12  13  44
43  3  13  14  45
44  3  13  14  46
45  3  14  15  47
46  3  14  15  48
47  3  15  16  49
48  3  15  16  50
49  4  16  17  51
50  5  47  15  48
51  3  11  10  38
52  5  25  4  26
53  3  4  3  23
54  5  41  12  42
55  3  4  3  24
56  6  17  16  50
57  3  5  4  26
58  5  27  5  28
59  5  35  9  36
60  5  39  11  40
61  5  18  1  19
62  3  9  8  34
63  5  31  7  32
64  3  12  11  39
65  3  8  7  32
66  3  5  4  25
67  3  8  7  31
68  3  15  14  46
69  5  21  2  22
70  5  45  14  46
71  3  13  12  42
72  5  33  8  34
73  5  23  3  24
74  3  16  15  47
75  3  6  5  27
76  5  49  16  50
77  5  43  13  44
78  3  7  6  29
79  3  10  9  35
80  5  29  6  30
81  5  18  1  20
82  5  37  10  38
83  3  15  14  45
84  3  13  12  41
85  3  9  8  33
86  3  3  2  21
87  3  7  6  30
88  3  16  15  48
89  3  14  13  43
90  3  3  2  22
91  3  6  5  28
92  3  12  11  40
93  6  17  16  49
94  3  11  10  37
95  3  10  9  36
96  5  19  1  20
97  3  14  13  44

Dihedrals

1  1  4  3  2  1
2  1  5  4  3  2
3  1  6  5  4  3
4  1  7  6  5  4
5  1  8  7  6  5
6  1  9  8  7  6
7  1  10  9  8  7
8  1  11  10  9  8
9  1  12  11  10  9
10  1  13  12  11  10
11  1  14  13  12  11
12  1  15  14  13  12
13  1  16  15  14  13
14  2  17  16  15  14
15  3  18  1  2  3
16  4  51  17  16  15
17  3  34  8  7  6
18  3  50  16  15  48
19  3  31  7  6  5
20  3  31  7  8  9
21  3  38  10  9  8
22  3  35  9  10  11
23  3  29  6  5  4
24  3  43  13  12  41
25  3  47  15  14  13
26  3  26  4  3  23
27  3  25  4  3  24
28  3  19  1  2  3
29  5  48  15  16  17
30  3  33  8  7  6
31  3  32  7  6  29
32  3  31  7  6  30
33  3  25  4  5  6
34  3  32  7  8  9
35  3  28  5  4  3
36  3  23  3  4  5
37  3  24  3  2  22
38  6  51  17  16  50
39  3  44  13  12  41
40  3  43  13  12  42
41  3  45  14  13  44
42  3  36  9  8  7
43  3  29  6  5  27
44  3  22  2  3  4
45  3  49  16  15  14
46  3  24  3  2  21
47  3  23  3  2  22
48  3  22  2  1  18
49  3  26  4  3  2
50  3  28  5  6  7
51  3  33  8  7  32
52  3  34  8  7  31
53  3  30  6  7  8
54  6  51  17  16  49
55  3  40  11  12  13
56  3  22  2  1  20
57  3  46  14  13  43
58  3  36  9  10  11
59  3  21  2  1  18
60  3  37  10  9  35
61  3  38  10  9  36
62  3  32  7  6  30
63  3  39  11  10  38
64  3  44  13  14  15
65  3  40  11  10  38
66  3  35  9  8  7
67  3  35  9  8  33
68  3  41  12  11  10
69  3  39  11  10  9
70  3  30  6  5  4
71  3  27  5  6  7
72  3  40  11  10  37
73  3  37  10  9  8
74  3  42  12  11  39
75  3  41  12  11  40
76  3  48  15  14  46
77  3  24  3  4  5
78  3  48  15  14  13
79  3  41  12  11  39
80  3  42  12  11  40
81  3  45  14  15  16
82  5  47  15  16  17
83  3  21  2  1  20
84  3  22  2  1  19
85  3  48  15  14  45
86  3  47  15  14  46
87  3  27  5  4  25
88  3  33  8  7  31
89  3  39  11  12  13
90  3  42  12  13  14
91  3  29  6  7  8
92  3  32  7  6  5
93  3  36  9  8  34
94  3  31  7  6  29
95  3  45  14  13  43
96  3  25  4  3  23
97  3  50  16  15  14
98  3  34  8  9  10
99  3  30  6  5  28
100  3  23  3  2  1
101  3  42  12  11  10
102  3  43  13  12  11
103  3  23  3  2  21
104  3  34  8  7  32
105  3  21  2  3  4
106  3  36  9  8  33
107  3  35  9  8  34
108  3  24  3  2  1
109  3  20  1  2  3
110  3  38  10  9  35
111  3  37  10  9  36
112  3  28  5  4  26
113  3  28  5  4  25
114  3  27  5  4  26
115  3  49  16  15  47
116  3  26  4  5  6
117  3  44  13  12  42
118  3  46  14  13  44
119  3  39  11  10  37
120  3  27  5  4  3
121  3  45  14  13  12
122  3  40  11  10  9
123  3  37  10  11  12
124  3  21  2  1  19
125  3  29  6  5  28
126  3  30  6  5  27
127  3  47  15  14  45
128  3  25  4  3  2
129  3  41  12  13  14
130  3  44  13  12  11
131  3  33  8  9  10
132  3  26  4  3  24
133  3  43  13  14  15
134  3  46  14  13  12
135  3  46  14  15  16
136  3  38  10  11  12
137  3  50  16  15  47
138  3  49  16  15  48

Impropers

1  1  1  2  19  18
2  1  1  2  20  18
3  1  2  1  3  21
4  1  2  1  3  22
5  1  3  2  4  23
6  1  3  2  4  24
7  1  4  25  3  5
8  1  4  26  3  5
9  1  5  27  4  6
10  1  5  4  28  6
11  1  6  5  29  7
12  1  6  5  30  7
13  1  7  8  31  6
14  1  7  8  6  32
15  1  8  33  9  7
16  1  8  9  34  7
17  1  9  10  35  8
18  1  9  10  36  8
19  1  10  9  11  37
20  1  10  9  11  38
21  1  11  10  12  39
22  1  11  10  12  40
23  1  12  41  11  13
24  1  12  42  11  13
25  1  13  43  12  14
26  1  13  12  44  14
27  1  14  13  45  15
28  1  14  13  46  15
29  1  15  16  47  14
30  1  15  16  14  48
31  1  16  49  17  15
32  1  16  17  50  15
