LAMMPS data file Created by LigParGen - (Written by Leela S. Dodda)

      51 atoms
      50 bonds
      97 angles
     138 dihedrals
      32 impropers
 
      51 atom types
      50 bond types
      97 angle types
     138 dihedral types
      32 improper types
 
  -15.609240    34.390760 xlo xhi
   -0.165430    49.834570 ylo yhi
   -1.026180    48.973820 zlo zhi

Masses

       1     12.011  
       2     12.011  
       3     12.011  
       4     12.011  
       5     12.011  
       6     12.011  
       7     12.011  
       8     12.011  
       9     12.011  
      10     12.011  
      11     12.011  
      12     12.011  
      13     12.011  
      14     12.011  
      15     12.011  
      16     12.011  
      17     32.060  
      18      1.008  
      19      1.008  
      20      1.008  
      21      1.008  
      22      1.008  
      23      1.008  
      24      1.008  
      25      1.008  
      26      1.008  
      27      1.008  
      28      1.008  
      29      1.008  
      30      1.008  
      31      1.008  
      32      1.008  
      33      1.008  
      34      1.008  
      35      1.008  
      36      1.008  
      37      1.008  
      38      1.008  
      39      1.008  
      40      1.008  
      41      1.008  
      42      1.008  
      43      1.008  
      44      1.008  
      45      1.008  
      46      1.008  
      47      1.008  
      48      1.008  
      49      1.008  
      50      1.008  
      51      1.008  

Pair Coeffs 

       1      0.066  3.5000000 
       2      0.066  3.5000000 
       3      0.066  3.5000000 
       4      0.066  3.5000000 
       5      0.066  3.5000000 
       6      0.066  3.5000000 
       7      0.066  3.5000000 
       8      0.066  3.5000000 
       9      0.066  3.5000000 
      10      0.066  3.5000000 
      11      0.066  3.5000000 
      12      0.066  3.5000000 
      13      0.066  3.5000000 
      14      0.066  3.5000000 
      15      0.066  3.5000000 
      16      0.066  3.5000000 
      17      0.425  3.6000000 
      18      0.030  2.5000000 
      19      0.030  2.5000000 
      20      0.030  2.5000000 
      21      0.030  2.5000000 
      22      0.030  2.5000000 
      23      0.030  2.5000000 
      24      0.030  2.5000000 
      25      0.030  2.5000000 
      26      0.030  2.5000000 
      27      0.030  2.5000000 
      28      0.030  2.5000000 
      29      0.030  2.5000000 
      30      0.030  2.5000000 
      31      0.030  2.5000000 
      32      0.030  2.5000000 
      33      0.030  2.5000000 
      34      0.030  2.5000000 
      35      0.030  2.5000000 
      36      0.030  2.5000000 
      37      0.030  2.5000000 
      38      0.030  2.5000000 
      39      0.030  2.5000000 
      40      0.030  2.5000000 
      41      0.030  2.5000000 
      42      0.030  2.5000000 
      43      0.030  2.5000000 
      44      0.030  2.5000000 
      45      0.030  2.5000000 
      46      0.030  2.5000000 
      47      0.030  2.5000000 
      48      0.030  2.5000000 
      49      0.030  2.5000000 
      50      0.030  2.5000000 
      51      0.000  0.0000000 

Bond Coeffs 

       1   268.0000     1.5290 
       2   268.0000     1.5290 
       3   268.0000     1.5290 
       4   268.0000     1.5290 
       5   268.0000     1.5290 
       6   268.0000     1.5290 
       7   268.0000     1.5290 
       8   268.0000     1.5290 
       9   268.0000     1.5290 
      10   268.0000     1.5290 
      11   268.0000     1.5290 
      12   268.0000     1.5290 
      13   268.0000     1.5290 
      14   268.0000     1.5290 
      15   268.0000     1.5290 
      16   222.0000     1.8100 
      17   340.0000     1.0900 
      18   340.0000     1.0900 
      19   340.0000     1.0900 
      20   340.0000     1.0900 
      21   340.0000     1.0900 
      22   340.0000     1.0900 
      23   340.0000     1.0900 
      24   340.0000     1.0900 
      25   340.0000     1.0900 
      26   340.0000     1.0900 
      27   340.0000     1.0900 
      28   340.0000     1.0900 
      29   340.0000     1.0900 
      30   340.0000     1.0900 
      31   340.0000     1.0900 
      32   340.0000     1.0900 
      33   340.0000     1.0900 
      34   340.0000     1.0900 
      35   340.0000     1.0900 
      36   340.0000     1.0900 
      37   340.0000     1.0900 
      38   340.0000     1.0900 
      39   340.0000     1.0900 
      40   340.0000     1.0900 
      41   340.0000     1.0900 
      42   340.0000     1.0900 
      43   340.0000     1.0900 
      44   340.0000     1.0900 
      45   340.0000     1.0900 
      46   340.0000     1.0900 
      47   340.0000     1.0900 
      48   340.0000     1.0900 
      49   340.0000     1.0900 
      50   274.0000     1.3360 

Angle Coeffs 

       1     58.350    112.700
       2     58.350    112.700
       3     58.350    112.700
       4     58.350    112.700
       5     58.350    112.700
       6     58.350    112.700
       7     58.350    112.700
       8     58.350    112.700
       9     58.350    112.700
      10     58.350    112.700
      11     58.350    112.700
      12     58.350    112.700
      13     58.350    112.700
      14     58.350    112.700
      15     50.000    108.600
      16     37.500    110.700
      17     37.500    110.700
      18     37.500    110.700
      19     37.500    110.700
      20     37.500    110.700
      21     37.500    110.700
      22     37.500    110.700
      23     37.500    110.700
      24     37.500    110.700
      25     37.500    110.700
      26     37.500    110.700
      27     37.500    110.700
      28     37.500    110.700
      29     37.500    110.700
      30     37.500    110.700
      31     37.500    110.700
      32     37.500    110.700
      33     37.500    110.700
      34     37.500    110.700
      35     37.500    110.700
      36     37.500    110.700
      37     37.500    110.700
      38     37.500    110.700
      39     37.500    110.700
      40     37.500    110.700
      41     37.500    110.700
      42     37.500    110.700
      43     37.500    110.700
      44     37.500    110.700
      45     37.500    110.700
      46     37.500    110.700
      47     37.500    110.700
      48     37.500    110.700
      49     44.000     96.000
      50     33.000    107.800
      51     37.500    110.700
      52     33.000    107.800
      53     37.500    110.700
      54     33.000    107.800
      55     37.500    110.700
      56     35.000    109.500
      57     37.500    110.700
      58     33.000    107.800
      59     33.000    107.800
      60     33.000    107.800
      61     33.000    107.800
      62     37.500    110.700
      63     33.000    107.800
      64     37.500    110.700
      65     37.500    110.700
      66     37.500    110.700
      67     37.500    110.700
      68     37.500    110.700
      69     33.000    107.800
      70     33.000    107.800
      71     37.500    110.700
      72     33.000    107.800
      73     33.000    107.800
      74     37.500    110.700
      75     37.500    110.700
      76     33.000    107.800
      77     33.000    107.800
      78     37.500    110.700
      79     37.500    110.700
      80     33.000    107.800
      81     33.000    107.800
      82     33.000    107.800
      83     37.500    110.700
      84     37.500    110.700
      85     37.500    110.700
      86     37.500    110.700
      87     37.500    110.700
      88     37.500    110.700
      89     37.500    110.700
      90     37.500    110.700
      91     37.500    110.700
      92     37.500    110.700
      93     35.000    109.500
      94     37.500    110.700
      95     37.500    110.700
      96     33.000    107.800
      97     37.500    110.700

Dihedral Coeffs  

       1      1.300     -0.200      0.200      0.000 
       2      1.300     -0.200      0.200      0.000 
       3      1.300     -0.200      0.200      0.000 
       4      1.300     -0.200      0.200      0.000 
       5      1.300     -0.200      0.200      0.000 
       6      1.300     -0.200      0.200      0.000 
       7      1.300     -0.200      0.200      0.000 
       8      1.300     -0.200      0.200      0.000 
       9      1.300     -0.200      0.200      0.000 
      10      1.300     -0.200      0.200      0.000 
      11      1.300     -0.200      0.200      0.000 
      12      1.300     -0.200      0.200      0.000 
      13      1.300     -0.200      0.200      0.000 
      14      1.262     -0.198      0.465      0.000 
      15      0.000      0.000      0.300      0.000 
      16     -0.759     -0.282      0.680      0.000 
      17      0.000      0.000      0.300      0.000 
      18      0.000      0.000      0.300      0.000 
      19      0.000      0.000      0.300      0.000 
      20      0.000      0.000      0.300      0.000 
      21      0.000      0.000      0.300      0.000 
      22      0.000      0.000      0.300      0.000 
      23      0.000      0.000      0.300      0.000 
      24      0.000      0.000      0.300      0.000 
      25      0.000      0.000      0.300      0.000 
      26      0.000      0.000      0.300      0.000 
      27      0.000      0.000      0.300      0.000 
      28      0.000      0.000      0.300      0.000 
      29      0.000      0.000      0.452      0.000 
      30      0.000      0.000      0.300      0.000 
      31      0.000      0.000      0.300      0.000 
      32      0.000      0.000      0.300      0.000 
      33      0.000      0.000      0.300      0.000 
      34      0.000      0.000      0.300      0.000 
      35      0.000      0.000      0.300      0.000 
      36      0.000      0.000      0.300      0.000 
      37      0.000      0.000      0.300      0.000 
      38      0.000      0.000      0.480      0.000 
      39      0.000      0.000      0.300      0.000 
      40      0.000      0.000      0.300      0.000 
      41      0.000      0.000      0.300      0.000 
      42      0.000      0.000      0.300      0.000 
      43      0.000      0.000      0.300      0.000 
      44      0.000      0.000      0.300      0.000 
      45      0.000      0.000      0.300      0.000 
      46      0.000      0.000      0.300      0.000 
      47      0.000      0.000      0.300      0.000 
      48      0.000      0.000      0.300      0.000 
      49      0.000      0.000      0.300      0.000 
      50      0.000      0.000      0.300      0.000 
      51      0.000      0.000      0.300      0.000 
      52      0.000      0.000      0.300      0.000 
      53      0.000      0.000      0.300      0.000 
      54      0.000      0.000      0.480      0.000 
      55      0.000      0.000      0.300      0.000 
      56      0.000      0.000      0.300      0.000 
      57      0.000      0.000      0.300      0.000 
      58      0.000      0.000      0.300      0.000 
      59      0.000      0.000      0.300      0.000 
      60      0.000      0.000      0.300      0.000 
      61      0.000      0.000      0.300      0.000 
      62      0.000      0.000      0.300      0.000 
      63      0.000      0.000      0.300      0.000 
      64      0.000      0.000      0.300      0.000 
      65      0.000      0.000      0.300      0.000 
      66      0.000      0.000      0.300      0.000 
      67      0.000      0.000      0.300      0.000 
      68      0.000      0.000      0.300      0.000 
      69      0.000      0.000      0.300      0.000 
      70      0.000      0.000      0.300      0.000 
      71      0.000      0.000      0.300      0.000 
      72      0.000      0.000      0.300      0.000 
      73      0.000      0.000      0.300      0.000 
      74      0.000      0.000      0.300      0.000 
      75      0.000      0.000      0.300      0.000 
      76      0.000      0.000      0.300      0.000 
      77      0.000      0.000      0.300      0.000 
      78      0.000      0.000      0.300      0.000 
      79      0.000      0.000      0.300      0.000 
      80      0.000      0.000      0.300      0.000 
      81      0.000      0.000      0.300      0.000 
      82      0.000      0.000      0.452      0.000 
      83      0.000      0.000      0.300      0.000 
      84      0.000      0.000      0.300      0.000 
      85      0.000      0.000      0.300      0.000 
      86      0.000      0.000      0.300      0.000 
      87      0.000      0.000      0.300      0.000 
      88      0.000      0.000      0.300      0.000 
      89      0.000      0.000      0.300      0.000 
      90      0.000      0.000      0.300      0.000 
      91      0.000      0.000      0.300      0.000 
      92      0.000      0.000      0.300      0.000 
      93      0.000      0.000      0.300      0.000 
      94      0.000      0.000      0.300      0.000 
      95      0.000      0.000      0.300      0.000 
      96      0.000      0.000      0.300      0.000 
      97      0.000      0.000      0.300      0.000 
      98      0.000      0.000      0.300      0.000 
      99      0.000      0.000      0.300      0.000 
     100      0.000      0.000      0.300      0.000 
     101      0.000      0.000      0.300      0.000 
     102      0.000      0.000      0.300      0.000 
     103      0.000      0.000      0.300      0.000 
     104      0.000      0.000      0.300      0.000 
     105      0.000      0.000      0.300      0.000 
     106      0.000      0.000      0.300      0.000 
     107      0.000      0.000      0.300      0.000 
     108      0.000      0.000      0.300      0.000 
     109      0.000      0.000      0.300      0.000 
     110      0.000      0.000      0.300      0.000 
     111      0.000      0.000      0.300      0.000 
     112      0.000      0.000      0.300      0.000 
     113      0.000      0.000      0.300      0.000 
     114      0.000      0.000      0.300      0.000 
     115      0.000      0.000      0.300      0.000 
     116      0.000      0.000      0.300      0.000 
     117      0.000      0.000      0.300      0.000 
     118      0.000      0.000      0.300      0.000 
     119      0.000      0.000      0.300      0.000 
     120      0.000      0.000      0.300      0.000 
     121      0.000      0.000      0.300      0.000 
     122      0.000      0.000      0.300      0.000 
     123      0.000      0.000      0.300      0.000 
     124      0.000      0.000      0.300      0.000 
     125      0.000      0.000      0.300      0.000 
     126      0.000      0.000      0.300      0.000 
     127      0.000      0.000      0.300      0.000 
     128      0.000      0.000      0.300      0.000 
     129      0.000      0.000      0.300      0.000 
     130      0.000      0.000      0.300      0.000 
     131      0.000      0.000      0.300      0.000 
     132      0.000      0.000      0.300      0.000 
     133      0.000      0.000      0.300      0.000 
     134      0.000      0.000      0.300      0.000 
     135      0.000      0.000      0.300      0.000 
     136      0.000      0.000      0.300      0.000 
     137      0.000      0.000      0.300      0.000 
     138      0.000      0.000      0.300      0.000 

Improper Coeffs 

       1      0.000      -1       2 
       2      0.000      -1       2 
       3      0.000      -1       2 
       4      0.000      -1       2 
       5      0.000      -1       2 
       6      0.000      -1       2 
       7      0.000      -1       2 
       8      0.000      -1       2 
       9      0.000      -1       2 
      10      0.000      -1       2 
      11      0.000      -1       2 
      12      0.000      -1       2 
      13      0.000      -1       2 
      14      0.000      -1       2 
      15      0.000      -1       2 
      16      0.000      -1       2 
      17      0.000      -1       2 
      18      0.000      -1       2 
      19      0.000      -1       2 
      20      0.000      -1       2 
      21      0.000      -1       2 
      22      0.000      -1       2 
      23      0.000      -1       2 
      24      0.000      -1       2 
      25      0.000      -1       2 
      26      0.000      -1       2 
      27      0.000      -1       2 
      28      0.000      -1       2 
      29      0.000      -1       2 
      30      0.000      -1       2 
      31      0.000      -1       2 
      32      0.000      -1       2 

Atoms 

     1      1      1 -0.23880000    1.000  1.00000  0.00000
     2      1      2 -0.17940000   -0.520  1.00000  0.00000
     3      1      3 -0.17870000   -1.071  1.00000  1.42402
     4      1      4 -0.17930000   -2.598  1.00180  1.42565
     5      1      5 -0.17940000   -3.141  0.99998  2.85313
     6      1      6 -0.17940000   -4.667  0.99997  2.85967
     7      1      7 -0.17950000   -5.205  0.99996  4.28854
     8      1      8 -0.17930000   -6.731  1.00175  4.29508
     9      1      9 -0.17920000   -7.267  0.99993  5.72421
    10      1     10 -0.17940000   -8.792  0.99992  5.73074
    11      1     11 -0.17950000   -9.329  0.99990  7.15983
    12      1     12 -0.17910000  -10.855  1.00169  7.16963
    13      1     13 -0.17870000  -11.389  0.99987  8.59938
    14      1     14 -0.18040000  -12.917  1.00346  8.61247
    15      1     15 -0.18390000  -13.454  0.99984 10.04383
    16      1     16 0.01230000  -14.979  1.00164 10.04873
    17      1     17 -0.44140000  -15.609  0.99518 11.75086
    18      1     18 0.08080000    1.379  0.99870 -1.02618
    19      1     19 0.08080000    1.390  0.11091  0.50701
    20      1     20 0.08080000    1.391  1.88667  0.50807
    21      1     21 0.08840000   -0.882  0.11694 -0.53940
    22      1     22 0.08840000   -0.880  1.88315 -0.53945
    23      1     23 0.08950000   -0.703  1.88253  1.96124
    24      1     24 0.08950000   -0.705  0.11617  1.96040
    25      1     25 0.08940000   -2.970  0.12014  0.88941
    26      1     26 0.08940000   -2.967  1.88653  0.89223
    27      1     27 0.08960000   -2.771  1.88314  3.38833
    28      1     28 0.08960000   -2.770  0.11655  3.38733
    29      1     29 0.08970000   -5.038  0.11656  2.32589
    30      1     30 0.08970000   -5.038  1.88332  2.32594
    31      1     31 0.08980000   -4.831  1.88266  4.82230
    32      1     32 0.08980000   -4.833  0.11604  4.82141
    33      1     33 0.08980000   -7.103  0.12098  3.75774
    34      1     34 0.08980000   -7.100  1.88642  3.76287
    35      1     35 0.09010000   -6.895  1.88307  6.25781
    36      1     36 0.09010000   -6.895  0.11602  6.25637
    37      1     37 0.09000000   -9.164  0.11641  5.19690
    38      1     38 0.09000000   -9.164  1.88346  5.19690
    39      1     39 0.09030000   -8.955  1.88298  7.69267
    40      1     40 0.09030000   -8.956  0.11594  7.69232
    41      1     41 0.09040000  -11.227  0.11922  6.63487
    42      1     42 0.09040000  -11.225  1.88605  6.63700
    43      1     43 0.09150000  -11.014  1.88170  9.13339
    44      1     44 0.09150000  -11.018  0.11488  9.12977
    45      1     45 0.09160000  -13.289  0.12230  8.07554
    46      1     46 0.09160000  -13.286  1.88891  8.08086
    47      1     47 0.10180000  -13.073  1.88280 10.57264
    48      1     48 0.10180000  -13.075  0.11256 10.56637
    49      1     49 0.12600000  -15.366  0.11806  9.53144
    50      1     50 0.12600000  -15.364  1.89112  9.53998
    51      1     51 0.14530000  -15.046 -0.16543 12.11726

Bonds 

     1      1      2      1
     2      2      3      2
     3      3      4      3
     4      4      5      4
     5      5      6      5
     6      6      7      6
     7      7      8      7
     8      8      9      8
     9      9     10      9
    10     10     11     10
    11     11     12     11
    12     12     13     12
    13     13     14     13
    14     14     15     14
    15     15     16     15
    16     16     17     16
    17     17     18      1
    18     18     19      1
    19     19     20      1
    20     20     21      2
    21     21     22      2
    22     22     23      3
    23     23     24      3
    24     24     25      4
    25     25     26      4
    26     26     27      5
    27     27     28      5
    28     28     29      6
    29     29     30      6
    30     30     31      7
    31     31     32      7
    32     32     33      8
    33     33     34      8
    34     34     35      9
    35     35     36      9
    36     36     37     10
    37     37     38     10
    38     38     39     11
    39     39     40     11
    40     40     41     12
    41     41     42     12
    42     42     43     13
    43     43     44     13
    44     44     45     14
    45     45     46     14
    46     46     47     15
    47     47     48     15
    48     48     49     16
    49     49     50     16
    50     50     51     17

Angles 

     1      1      1      2      3
     2      2      2      3      4
     3      3      3      4      5
     4      4      4      5      6
     5      5      5      6      7
     6      6      6      7      8
     7      7      7      8      9
     8      8      8      9     10
     9      9      9     10     11
    10     10     10     11     12
    11     11     11     12     13
    12     12     12     13     14
    13     13     13     14     15
    14     14     14     15     16
    15     15     15     16     17
    16     16      2      1     18
    17     17      2      1     19
    18     18      2      1     20
    19     19      1      2     21
    20     20      1      2     22
    21     21      2      3     23
    22     22      2      3     24
    23     23      3      4     25
    24     24      3      4     26
    25     25      4      5     27
    26     26      4      5     28
    27     27      5      6     29
    28     28      5      6     30
    29     29      6      7     31
    30     30      6      7     32
    31     31      7      8     33
    32     32      7      8     34
    33     33      8      9     35
    34     34      8      9     36
    35     35      9     10     37
    36     36      9     10     38
    37     37     10     11     39
    38     38     10     11     40
    39     39     11     12     41
    40     40     11     12     42
    41     41     12     13     43
    42     42     12     13     44
    43     43     13     14     45
    44     44     13     14     46
    45     45     14     15     47
    46     46     14     15     48
    47     47     15     16     49
    48     48     15     16     50
    49     49     16     17     51
    50     50     47     15     48
    51     51     11     10     38
    52     52     25      4     26
    53     53      4      3     23
    54     54     41     12     42
    55     55      4      3     24
    56     56     17     16     50
    57     57      5      4     26
    58     58     27      5     28
    59     59     35      9     36
    60     60     39     11     40
    61     61     18      1     19
    62     62      9      8     34
    63     63     31      7     32
    64     64     12     11     39
    65     65      8      7     32
    66     66      5      4     25
    67     67      8      7     31
    68     68     15     14     46
    69     69     21      2     22
    70     70     45     14     46
    71     71     13     12     42
    72     72     33      8     34
    73     73     23      3     24
    74     74     16     15     47
    75     75      6      5     27
    76     76     49     16     50
    77     77     43     13     44
    78     78      7      6     29
    79     79     10      9     35
    80     80     29      6     30
    81     81     18      1     20
    82     82     37     10     38
    83     83     15     14     45
    84     84     13     12     41
    85     85      9      8     33
    86     86      3      2     21
    87     87      7      6     30
    88     88     16     15     48
    89     89     14     13     43
    90     90      3      2     22
    91     91      6      5     28
    92     92     12     11     40
    93     93     17     16     49
    94     94     11     10     37
    95     95     10      9     36
    96     96     19      1     20
    97     97     14     13     44

Dihedrals

     1      1      4      3      2      1 
     2      2      5      4      3      2 
     3      3      6      5      4      3 
     4      4      7      6      5      4 
     5      5      8      7      6      5 
     6      6      9      8      7      6 
     7      7     10      9      8      7 
     8      8     11     10      9      8 
     9      9     12     11     10      9 
    10     10     13     12     11     10 
    11     11     14     13     12     11 
    12     12     15     14     13     12 
    13     13     16     15     14     13 
    14     14     17     16     15     14 
    15     15     18      1      2      3 
    16     16     51     17     16     15 
    17     17     34      8      7      6 
    18     18     50     16     15     48 
    19     19     31      7      6      5 
    20     20     31      7      8      9 
    21     21     38     10      9      8 
    22     22     35      9     10     11 
    23     23     29      6      5      4 
    24     24     43     13     12     41 
    25     25     47     15     14     13 
    26     26     26      4      3     23 
    27     27     25      4      3     24 
    28     28     19      1      2      3 
    29     29     48     15     16     17 
    30     30     33      8      7      6 
    31     31     32      7      6     29 
    32     32     31      7      6     30 
    33     33     25      4      5      6 
    34     34     32      7      8      9 
    35     35     28      5      4      3 
    36     36     23      3      4      5 
    37     37     24      3      2     22 
    38     38     51     17     16     50 
    39     39     44     13     12     41 
    40     40     43     13     12     42 
    41     41     45     14     13     44 
    42     42     36      9      8      7 
    43     43     29      6      5     27 
    44     44     22      2      3      4 
    45     45     49     16     15     14 
    46     46     24      3      2     21 
    47     47     23      3      2     22 
    48     48     22      2      1     18 
    49     49     26      4      3      2 
    50     50     28      5      6      7 
    51     51     33      8      7     32 
    52     52     34      8      7     31 
    53     53     30      6      7      8 
    54     54     51     17     16     49 
    55     55     40     11     12     13 
    56     56     22      2      1     20 
    57     57     46     14     13     43 
    58     58     36      9     10     11 
    59     59     21      2      1     18 
    60     60     37     10      9     35 
    61     61     38     10      9     36 
    62     62     32      7      6     30 
    63     63     39     11     10     38 
    64     64     44     13     14     15 
    65     65     40     11     10     38 
    66     66     35      9      8      7 
    67     67     35      9      8     33 
    68     68     41     12     11     10 
    69     69     39     11     10      9 
    70     70     30      6      5      4 
    71     71     27      5      6      7 
    72     72     40     11     10     37 
    73     73     37     10      9      8 
    74     74     42     12     11     39 
    75     75     41     12     11     40 
    76     76     48     15     14     46 
    77     77     24      3      4      5 
    78     78     48     15     14     13 
    79     79     41     12     11     39 
    80     80     42     12     11     40 
    81     81     45     14     15     16 
    82     82     47     15     16     17 
    83     83     21      2      1     20 
    84     84     22      2      1     19 
    85     85     48     15     14     45 
    86     86     47     15     14     46 
    87     87     27      5      4     25 
    88     88     33      8      7     31 
    89     89     39     11     12     13 
    90     90     42     12     13     14 
    91     91     29      6      7      8 
    92     92     32      7      6      5 
    93     93     36      9      8     34 
    94     94     31      7      6     29 
    95     95     45     14     13     43 
    96     96     25      4      3     23 
    97     97     50     16     15     14 
    98     98     34      8      9     10 
    99     99     30      6      5     28 
   100    100     23      3      2      1 
   101    101     42     12     11     10 
   102    102     43     13     12     11 
   103    103     23      3      2     21 
   104    104     34      8      7     32 
   105    105     21      2      3      4 
   106    106     36      9      8     33 
   107    107     35      9      8     34 
   108    108     24      3      2      1 
   109    109     20      1      2      3 
   110    110     38     10      9     35 
   111    111     37     10      9     36 
   112    112     28      5      4     26 
   113    113     28      5      4     25 
   114    114     27      5      4     26 
   115    115     49     16     15     47 
   116    116     26      4      5      6 
   117    117     44     13     12     42 
   118    118     46     14     13     44 
   119    119     39     11     10     37 
   120    120     27      5      4      3 
   121    121     45     14     13     12 
   122    122     40     11     10      9 
   123    123     37     10     11     12 
   124    124     21      2      1     19 
   125    125     29      6      5     28 
   126    126     30      6      5     27 
   127    127     47     15     14     45 
   128    128     25      4      3      2 
   129    129     41     12     13     14 
   130    130     44     13     12     11 
   131    131     33      8      9     10 
   132    132     26      4      3     24 