#C14_anion

44 atoms
3 atom types

43 bonds
3 bond types

84 angles
5 angle types

117 dihedrals
4 dihedral types

28 impropers
1 improper types

-13.56992  36.43008  xlo xhi
0  50.11089  ylo yhi
-1.02686  48.97314  zlo zhi

Masses

1  12.011
2  32.06
3  1.008

Pair Coeffs

1  0.066  3.5
2  0.355  3.55
3  0.03  2.5

Bond Coeffs

1  268.0  1.529
2  340.0  1.77
3  340.0  1.09

Angle Coeffs

1  58.35  112.7
2  50.0  108.6
3  37.5  110.7
4  33.0  107.8
5  35.0  109.5

Dihedral Coeffs

1  1.3  -0.2  0.2  0.0
2  1.262  -0.198  0.465  0.0
3  0.0  0.0  0.3  0.0
4  0.0  0.0  0.452  0.0

Improper Coeffs

1  0.0  -1.0  2.0

Atoms # full

1  1  1  -0.2091   1   1   0
2  1  1  -0.1577  -0.52   1   0
3  1  1  -0.1568  -1.073   1   1.42335
4  1  1  -0.1573  -2.601   0.9982   1.42336
5  1  1  -0.1575  -3.147   1.00001   2.85028
6  1  1  -0.1572  -4.674   1.00003   2.85682
7  1  1  -0.1574  -5.216   1.00364   4.2852
8  1  1  -0.1574  -6.743   1.00186   4.29339
9  1  1  -0.1577  -7.284   1.00368   5.72179
10  1  1  -0.1582  -8.811   1.00009   5.72997
11  1  1  -0.1564  -9.354   1.0037   7.15833
12  1  1  -0.1686  -10.882   0.99831   7.16489
13  1  1  -0.1504  -11.429   1.00372   8.5956
14  1  1  -0.086  -12.963   0.99644   8.59234
15  1  2  -0.8981  -13.57   1.00105   10.32061
16  1  3   0.0691   1.378   0.9987  -1.02686
17  1  3   0.0691   1.39   0.11205   0.50771
18  1  3   0.0691   1.39   1.88843   0.50636
19  1  3   0.0768  -0.88   0.11628  -0.5398
20  1  3   0.0768  -0.88   1.88363  -0.53974
21  1  3   0.078  -0.707   1.88389   1.96017
22  1  3   0.078  -0.705   0.11749   1.96096
23  1  3   0.0776  -2.969   0.11332   0.88945
24  1  3   0.0776  -2.97   1.88067   0.88623
25  1  3   0.0777  -2.777   1.88384   3.38436
26  1  3   0.0777  -2.777   0.1176   3.38656
27  1  3   0.0772  -5.045   0.11553   2.32403
28  1  3   0.0772  -5.045   1.88258   2.3205
29  1  3   0.0773  -4.845   1.88885   4.81659
30  1  3   0.0773  -4.843   0.12237   4.82194
31  1  3   0.076  -7.112   0.11742   3.76031
32  1  3   0.076  -7.115   1.88359   3.75727
33  1  3   0.0763  -6.915   1.88882   6.25386
34  1  3   0.0763  -6.91   0.1225   6.25775
35  1  3   0.0731  -9.179   0.11374   5.19807
36  1  3   0.0731  -9.183   1.88084   5.19211
37  1  3   0.0745  -8.986   1.89064   7.6884
38  1  3   0.0745  -8.979   0.12354   7.69526
39  1  3   0.0642  -11.248   0.11089   6.63427
40  1  3   0.0642  -11.254   1.87781   6.62506
41  1  3   0.0785  -11.049   1.89234   9.11775
42  1  3   0.0785  -11.041   0.12493   9.12747
43  1  3   0.032  -13.31   0.11763   8.03523
44  1  3   0.032  -13.318   1.86781   8.02864

Bonds

1  1  2  1
2  1  3  2
3  1  4  3
4  1  5  4
5  1  6  5
6  1  7  6
7  1  8  7
8  1  9  8
9  1  10  9
10  1  11  10
11  1  12  11
12  1  13  12
13  1  14  13
14  2  15  14
15  3  16  1
16  3  17  1
17  3  18  1
18  3  19  2
19  3  20  2
20  3  21  3
21  3  22  3
22  3  23  4
23  3  24  4
24  3  25  5
25  3  26  5
26  3  27  6
27  3  28  6
28  3  29  7
29  3  30  7
30  3  31  8
31  3  32  8
32  3  33  9
33  3  34  9
34  3  35  10
35  3  36  10
36  3  37  11
37  3  38  11
38  3  39  12
39  3  40  12
40  3  41  13
41  3  42  13
42  3  43  14
43  3  44  14

Angles

1  1  1  2  3
2  1  2  3  4
3  1  3  4  5
4  1  4  5  6
5  1  5  6  7
6  1  6  7  8
7  1  7  8  9
8  1  8  9  10
9  1  9  10  11
10  1  10  11  12
11  1  11  12  13
12  1  12  13  14
13  2  13  14  15
14  3  2  1  16
15  3  2  1  17
16  3  2  1  18
17  3  1  2  19
18  3  1  2  20
19  3  2  3  21
20  3  2  3  22
21  3  3  4  23
22  3  3  4  24
23  3  4  5  25
24  3  4  5  26
25  3  5  6  27
26  3  5  6  28
27  3  6  7  29
28  3  6  7  30
29  3  7  8  31
30  3  7  8  32
31  3  8  9  33
32  3  8  9  34
33  3  9  10  35
34  3  9  10  36
35  3  10  11  37
36  3  10  11  38
37  3  11  12  39
38  3  11  12  40
39  3  12  13  41
40  3  12  13  42
41  3  13  14  43
42  3  13  14  44
43  3  9  8  32
44  3  13  12  40
45  3  3  2  20
46  4  41  13  42
47  4  37  11  38
48  4  23  4  24
49  3  12  11  37
50  4  19  2  20
51  4  31  8  32
52  4  16  1  18
53  3  5  4  24
54  3  13  12  39
55  4  39  12  40
56  4  16  1  17
57  3  4  3  22
58  4  21  3  22
59  3  7  6  28
60  3  10  9  34
61  4  29  7  30
62  4  43  14  44
63  3  11  10  36
64  3  5  4  23
65  3  8  7  29
66  3  11  10  35
67  3  7  6  27
68  3  3  2  19
69  4  25  5  26
70  3  14  13  41
71  5  15  14  44
72  3  4  3  21
73  3  6  5  26
74  4  33  9  34
75  4  27  6  28
76  3  10  9  33
77  3  14  13  42
78  4  35  10  36
79  3  6  5  25
80  3  12  11  38
81  3  9  8  31
82  4  17  1  18
83  3  8  7  30
84  5  15  14  43

Dihedrals

1  1  4  3  2  1
2  1  5  4  3  2
3  1  6  5  4  3
4  1  7  6  5  4
5  1  8  7  6  5
6  1  9  8  7  6
7  1  10  9  8  7
8  1  11  10  9  8
9  1  12  11  10  9
10  1  13  12  11  10
11  1  14  13  12  11
12  2  15  14  13  12
13  3  16  1  2  3
14  3  23  4  3  21
15  3  35  10  11  12
16  3  35  10  9  8
17  3  28  6  7  8
18  3  42  13  12  39
19  3  41  13  12  40
20  3  21  3  2  20
21  3  22  3  2  19
22  3  38  11  10  35
23  3  25  5  4  3
24  3  39  12  11  10
25  3  31  8  7  6
26  3  37  11  10  35
27  3  41  13  12  39
28  3  44  14  13  41
29  3  38  11  10  9
30  3  39  12  13  14
31  3  20  2  1  18
32  3  25  5  4  23
33  3  42  13  12  40
34  3  43  14  13  41
35  3  38  11  10  36
36  3  40  12  11  38
37  3  25  5  6  7
38  3  28  6  5  4
39  3  37  11  10  9
40  3  30  7  6  5
41  3  29  7  8  9
42  3  33  9  8  7
43  3  29  7  6  28
44  3  30  7  6  27
45  3  34  9  8  32
46  3  32  8  7  30
47  3  33  9  8  32
48  3  34  9  8  31
49  3  44  14  13  12
50  3  27  6  5  25
51  3  23  4  5  6
52  3  26  5  4  24
53  3  35  10  9  33
54  3  41  13  12  11
55  3  34  9  10  11
56  3  37  11  12  13
57  3  40  12  11  10
58  3  39  12  11  37
59  3  32  8  9  10
60  3  26  5  4  23
61  3  25  5  4  24
62  3  24  4  3  22
63  3  26  5  4  3
64  3  43  14  13  12
65  3  38  11  12  13
66  3  36  10  11  12
67  3  31  8  7  29
68  3  43  14  13  42
69  3  30  7  8  9
70  3  27  6  5  4
71  3  23  4  3  2
72  3  32  8  7  6
73  3  42  13  12  11
74  3  24  4  3  21
75  3  23  4  3  22
76  3  19  2  1  16
77  3  35  10  9  34
78  3  36  10  9  33
79  3  21  3  2  19
80  3  20  2  1  17
81  3  19  2  1  18
82  3  22  3  2  20
83  3  37  11  10  36
84  3  21  3  4  5
85  3  34  9  8  7
86  3  31  8  9  10
87  3  24  4  3  2
88  3  36  10  9  8
89  3  24  4  5  6
90  3  33  9  10  11
91  3  39  12  11  38
92  3  40  12  11  37
93  3  36  10  9  34
94  3  44  14  13  42
95  4  41  13  14  15
96  3  27  6  7  8
97  3  20  2  3  4
98  3  17  1  2  3
99  3  40  12  13  14
100  3  28  6  5  26
101  3  31  8  7  30
102  3  32  8  7  29
103  3  28  6  5  25
104  3  27  6  5  26
105  3  19  2  3  4
106  3  22  3  2  1
107  3  29  7  6  5
108  3  18  1  2  3
109  3  19  2  1  17
110  3  20  2  1  16
111  4  42  13  14  15
112  3  21  3  2  1
113  3  22  3  4  5
114  3  33  9  8  31
115  3  26  5  6  7
116  3  29  7  6  27
117  3  30  7  6  28

Impropers

1  1  1  17  16  2
2  1  1  18  16  2
3  1  2  1  19  3
4  1  2  1  3  20
5  1  3  2  4  21
6  1  3  2  4  22
7  1  4  3  5  23
8  1  4  3  5  24
9  1  5  25  4  6
10  1  5  26  4  6
11  1  6  27  5  7
12  1  6  28  5  7
13  1  7  29  6  8
14  1  7  8  30  6
15  1  8  9  7  31
16  1  8  9  7  32
17  1  9  33  10  8
18  1  9  34  10  8
19  1  10  9  35  11
20  1  10  9  11  36
21  1  11  10  12  37
22  1  11  10  12  38
23  1  12  11  13  39
24  1  12  11  13  40
25  1  13  41  12  14
26  1  13  42  12  14
27  1  14  43  13  15
28  1  14  44  13  15
