LAMMPS data file Created by LigParGen - (Written by Leela S. Dodda)

      44 atoms
      43 bonds
      84 angles
     117 dihedrals
      28 impropers
 
      44 atom types
      43 bond types
      84 angle types
     117 dihedral types
      28 improper types
 
  -13.569920    36.430080 xlo xhi
    0.110890    50.110890 ylo yhi
   -1.026860    48.973140 zlo zhi

Masses

       1     12.011  
       2     12.011  
       3     12.011  
       4     12.011  
       5     12.011  
       6     12.011  
       7     12.011  
       8     12.011  
       9     12.011  
      10     12.011  
      11     12.011  
      12     12.011  
      13     12.011  
      14     12.011  
      15     32.060  
      16      1.008  
      17      1.008  
      18      1.008  
      19      1.008  
      20      1.008  
      21      1.008  
      22      1.008  
      23      1.008  
      24      1.008  
      25      1.008  
      26      1.008  
      27      1.008  
      28      1.008  
      29      1.008  
      30      1.008  
      31      1.008  
      32      1.008  
      33      1.008  
      34      1.008  
      35      1.008  
      36      1.008  
      37      1.008  
      38      1.008  
      39      1.008  
      40      1.008  
      41      1.008  
      42      1.008  
      43      1.008  
      44      1.008  

Pair Coeffs 

       1      0.066  3.5000000 
       2      0.066  3.5000000 
       3      0.066  3.5000000 
       4      0.066  3.5000000 
       5      0.066  3.5000000 
       6      0.066  3.5000000 
       7      0.066  3.5000000 
       8      0.066  3.5000000 
       9      0.066  3.5000000 
      10      0.066  3.5000000 
      11      0.066  3.5000000 
      12      0.066  3.5000000 
      13      0.066  3.5000000 
      14      0.066  3.5000000 
      15      0.355  3.5500000 
      16      0.030  2.5000000 
      17      0.030  2.5000000 
      18      0.030  2.5000000 
      19      0.030  2.5000000 
      20      0.030  2.5000000 
      21      0.030  2.5000000 
      22      0.030  2.5000000 
      23      0.030  2.5000000 
      24      0.030  2.5000000 
      25      0.030  2.5000000 
      26      0.030  2.5000000 
      27      0.030  2.5000000 
      28      0.030  2.5000000 
      29      0.030  2.5000000 
      30      0.030  2.5000000 
      31      0.030  2.5000000 
      32      0.030  2.5000000 
      33      0.030  2.5000000 
      34      0.030  2.5000000 
      35      0.030  2.5000000 
      36      0.030  2.5000000 
      37      0.030  2.5000000 
      38      0.030  2.5000000 
      39      0.030  2.5000000 
      40      0.030  2.5000000 
      41      0.030  2.5000000 
      42      0.030  2.5000000 
      43      0.030  2.5000000 
      44      0.030  2.5000000 

Bond Coeffs 

       1   268.0000     1.5290 
       2   268.0000     1.5290 
       3   268.0000     1.5290 
       4   268.0000     1.5290 
       5   268.0000     1.5290 
       6   268.0000     1.5290 
       7   268.0000     1.5290 
       8   268.0000     1.5290 
       9   268.0000     1.5290 
      10   268.0000     1.5290 
      11   268.0000     1.5290 
      12   268.0000     1.5290 
      13   268.0000     1.5290 
      14   340.0000     1.7700 
      15   340.0000     1.0900 
      16   340.0000     1.0900 
      17   340.0000     1.0900 
      18   340.0000     1.0900 
      19   340.0000     1.0900 
      20   340.0000     1.0900 
      21   340.0000     1.0900 
      22   340.0000     1.0900 
      23   340.0000     1.0900 
      24   340.0000     1.0900 
      25   340.0000     1.0900 
      26   340.0000     1.0900 
      27   340.0000     1.0900 
      28   340.0000     1.0900 
      29   340.0000     1.0900 
      30   340.0000     1.0900 
      31   340.0000     1.0900 
      32   340.0000     1.0900 
      33   340.0000     1.0900 
      34   340.0000     1.0900 
      35   340.0000     1.0900 
      36   340.0000     1.0900 
      37   340.0000     1.0900 
      38   340.0000     1.0900 
      39   340.0000     1.0900 
      40   340.0000     1.0900 
      41   340.0000     1.0900 
      42   340.0000     1.0900 
      43   340.0000     1.0900 

Angle Coeffs 

       1     58.350    112.700
       2     58.350    112.700
       3     58.350    112.700
       4     58.350    112.700
       5     58.350    112.700
       6     58.350    112.700
       7     58.350    112.700
       8     58.350    112.700
       9     58.350    112.700
      10     58.350    112.700
      11     58.350    112.700
      12     58.350    112.700
      13     50.000    108.600
      14     37.500    110.700
      15     37.500    110.700
      16     37.500    110.700
      17     37.500    110.700
      18     37.500    110.700
      19     37.500    110.700
      20     37.500    110.700
      21     37.500    110.700
      22     37.500    110.700
      23     37.500    110.700
      24     37.500    110.700
      25     37.500    110.700
      26     37.500    110.700
      27     37.500    110.700
      28     37.500    110.700
      29     37.500    110.700
      30     37.500    110.700
      31     37.500    110.700
      32     37.500    110.700
      33     37.500    110.700
      34     37.500    110.700
      35     37.500    110.700
      36     37.500    110.700
      37     37.500    110.700
      38     37.500    110.700
      39     37.500    110.700
      40     37.500    110.700
      41     37.500    110.700
      42     37.500    110.700
      43     37.500    110.700
      44     37.500    110.700
      45     37.500    110.700
      46     33.000    107.800
      47     33.000    107.800
      48     33.000    107.800
      49     37.500    110.700
      50     33.000    107.800
      51     33.000    107.800
      52     33.000    107.800
      53     37.500    110.700
      54     37.500    110.700
      55     33.000    107.800
      56     33.000    107.800
      57     37.500    110.700
      58     33.000    107.800
      59     37.500    110.700
      60     37.500    110.700
      61     33.000    107.800
      62     33.000    107.800
      63     37.500    110.700
      64     37.500    110.700
      65     37.500    110.700
      66     37.500    110.700
      67     37.500    110.700
      68     37.500    110.700
      69     33.000    107.800
      70     37.500    110.700
      71     35.000    109.500
      72     37.500    110.700
      73     37.500    110.700
      74     33.000    107.800
      75     33.000    107.800
      76     37.500    110.700
      77     37.500    110.700
      78     33.000    107.800
      79     37.500    110.700
      80     37.500    110.700
      81     37.500    110.700
      82     33.000    107.800
      83     37.500    110.700
      84     35.000    109.500

Dihedral Coeffs  

       1      1.300     -0.200      0.200      0.000 
       2      1.300     -0.200      0.200      0.000 
       3      1.300     -0.200      0.200      0.000 
       4      1.300     -0.200      0.200      0.000 
       5      1.300     -0.200      0.200      0.000 
       6      1.300     -0.200      0.200      0.000 
       7      1.300     -0.200      0.200      0.000 
       8      1.300     -0.200      0.200      0.000 
       9      1.300     -0.200      0.200      0.000 
      10      1.300     -0.200      0.200      0.000 
      11      1.300     -0.200      0.200      0.000 
      12      1.262     -0.198      0.465      0.000 
      13      0.000      0.000      0.300      0.000 
      14      0.000      0.000      0.300      0.000 
      15      0.000      0.000      0.300      0.000 
      16      0.000      0.000      0.300      0.000 
      17      0.000      0.000      0.300      0.000 
      18      0.000      0.000      0.300      0.000 
      19      0.000      0.000      0.300      0.000 
      20      0.000      0.000      0.300      0.000 
      21      0.000      0.000      0.300      0.000 
      22      0.000      0.000      0.300      0.000 
      23      0.000      0.000      0.300      0.000 
      24      0.000      0.000      0.300      0.000 
      25      0.000      0.000      0.300      0.000 
      26      0.000      0.000      0.300      0.000 
      27      0.000      0.000      0.300      0.000 
      28      0.000      0.000      0.300      0.000 
      29      0.000      0.000      0.300      0.000 
      30      0.000      0.000      0.300      0.000 
      31      0.000      0.000      0.300      0.000 
      32      0.000      0.000      0.300      0.000 
      33      0.000      0.000      0.300      0.000 
      34      0.000      0.000      0.300      0.000 
      35      0.000      0.000      0.300      0.000 
      36      0.000      0.000      0.300      0.000 
      37      0.000      0.000      0.300      0.000 
      38      0.000      0.000      0.300      0.000 
      39      0.000      0.000      0.300      0.000 
      40      0.000      0.000      0.300      0.000 
      41      0.000      0.000      0.300      0.000 
      42      0.000      0.000      0.300      0.000 
      43      0.000      0.000      0.300      0.000 
      44      0.000      0.000      0.300      0.000 
      45      0.000      0.000      0.300      0.000 
      46      0.000      0.000      0.300      0.000 
      47      0.000      0.000      0.300      0.000 
      48      0.000      0.000      0.300      0.000 
      49      0.000      0.000      0.300      0.000 
      50      0.000      0.000      0.300      0.000 
      51      0.000      0.000      0.300      0.000 
      52      0.000      0.000      0.300      0.000 
      53      0.000      0.000      0.300      0.000 
      54      0.000      0.000      0.300      0.000 
      55      0.000      0.000      0.300      0.000 
      56      0.000      0.000      0.300      0.000 
      57      0.000      0.000      0.300      0.000 
      58      0.000      0.000      0.300      0.000 
      59      0.000      0.000      0.300      0.000 
      60      0.000      0.000      0.300      0.000 
      61      0.000      0.000      0.300      0.000 
      62      0.000      0.000      0.300      0.000 
      63      0.000      0.000      0.300      0.000 
      64      0.000      0.000      0.300      0.000 
      65      0.000      0.000      0.300      0.000 
      66      0.000      0.000      0.300      0.000 
      67      0.000      0.000      0.300      0.000 
      68      0.000      0.000      0.300      0.000 
      69      0.000      0.000      0.300      0.000 
      70      0.000      0.000      0.300      0.000 
      71      0.000      0.000      0.300      0.000 
      72      0.000      0.000      0.300      0.000 
      73      0.000      0.000      0.300      0.000 
      74      0.000      0.000      0.300      0.000 
      75      0.000      0.000      0.300      0.000 
      76      0.000      0.000      0.300      0.000 
      77      0.000      0.000      0.300      0.000 
      78      0.000      0.000      0.300      0.000 
      79      0.000      0.000      0.300      0.000 
      80      0.000      0.000      0.300      0.000 
      81      0.000      0.000      0.300      0.000 
      82      0.000      0.000      0.300      0.000 
      83      0.000      0.000      0.300      0.000 
      84      0.000      0.000      0.300      0.000 
      85      0.000      0.000      0.300      0.000 
      86      0.000      0.000      0.300      0.000 
      87      0.000      0.000      0.300      0.000 
      88      0.000      0.000      0.300      0.000 
      89      0.000      0.000      0.300      0.000 
      90      0.000      0.000      0.300      0.000 
      91      0.000      0.000      0.300      0.000 
      92      0.000      0.000      0.300      0.000 
      93      0.000      0.000      0.300      0.000 
      94      0.000      0.000      0.300      0.000 
      95      0.000      0.000      0.452      0.000 
      96      0.000      0.000      0.300      0.000 
      97      0.000      0.000      0.300      0.000 
      98      0.000      0.000      0.300      0.000 
      99      0.000      0.000      0.300      0.000 
     100      0.000      0.000      0.300      0.000 
     101      0.000      0.000      0.300      0.000 
     102      0.000      0.000      0.300      0.000 
     103      0.000      0.000      0.300      0.000 
     104      0.000      0.000      0.300      0.000 
     105      0.000      0.000      0.300      0.000 
     106      0.000      0.000      0.300      0.000 
     107      0.000      0.000      0.300      0.000 
     108      0.000      0.000      0.300      0.000 
     109      0.000      0.000      0.300      0.000 
     110      0.000      0.000      0.300      0.000 
     111      0.000      0.000      0.452      0.000 
     112      0.000      0.000      0.300      0.000 
     113      0.000      0.000      0.300      0.000 
     114      0.000      0.000      0.300      0.000 
     115      0.000      0.000      0.300      0.000 
     116      0.000      0.000      0.300      0.000 
     117      0.000      0.000      0.300      0.000 

Improper Coeffs 

       1      0.000      -1       2 
       2      0.000      -1       2 
       3      0.000      -1       2 
       4      0.000      -1       2 
       5      0.000      -1       2 
       6      0.000      -1       2 
       7      0.000      -1       2 
       8      0.000      -1       2 
       9      0.000      -1       2 
      10      0.000      -1       2 
      11      0.000      -1       2 
      12      0.000      -1       2 
      13      0.000      -1       2 
      14      0.000      -1       2 
      15      0.000      -1       2 
      16      0.000      -1       2 
      17      0.000      -1       2 
      18      0.000      -1       2 
      19      0.000      -1       2 
      20      0.000      -1       2 
      21      0.000      -1       2 
      22      0.000      -1       2 
      23      0.000      -1       2 
      24      0.000      -1       2 
      25      0.000      -1       2 
      26      0.000      -1       2 
      27      0.000      -1       2 
      28      0.000      -1       2 

Atoms 

     1      1      1 -0.20910000    1.000  1.00000  0.00000
     2      1      2 -0.15770000   -0.520  1.00000  0.00000
     3      1      3 -0.15680000   -1.073  1.00000  1.42335
     4      1      4 -0.15730000   -2.601  0.99820  1.42336
     5      1      5 -0.15750000   -3.147  1.00001  2.85028
     6      1      6 -0.15720000   -4.674  1.00003  2.85682
     7      1      7 -0.15740000   -5.216  1.00364  4.28520
     8      1      8 -0.15740000   -6.743  1.00186  4.29339
     9      1      9 -0.15770000   -7.284  1.00368  5.72179
    10      1     10 -0.15820000   -8.811  1.00009  5.72997
    11      1     11 -0.15640000   -9.354  1.00370  7.15833
    12      1     12 -0.16860000  -10.882  0.99831  7.16489
    13      1     13 -0.15040000  -11.429  1.00372  8.59560
    14      1     14 -0.08600000  -12.963  0.99644  8.59234
    15      1     15 -0.89810000  -13.570  1.00105 10.32061
    16      1     16 0.06910000    1.378  0.99870 -1.02686
    17      1     17 0.06910000    1.390  0.11205  0.50771
    18      1     18 0.06910000    1.390  1.88843  0.50636
    19      1     19 0.07680000   -0.880  0.11628 -0.53980
    20      1     20 0.07680000   -0.880  1.88363 -0.53974
    21      1     21 0.07800000   -0.707  1.88389  1.96017
    22      1     22 0.07800000   -0.705  0.11749  1.96096
    23      1     23 0.07760000   -2.969  0.11332  0.88945
    24      1     24 0.07760000   -2.970  1.88067  0.88623
    25      1     25 0.07770000   -2.777  1.88384  3.38436
    26      1     26 0.07770000   -2.777  0.11760  3.38656
    27      1     27 0.07720000   -5.045  0.11553  2.32403
    28      1     28 0.07720000   -5.045  1.88258  2.32050
    29      1     29 0.07730000   -4.845  1.88885  4.81659
    30      1     30 0.07730000   -4.843  0.12237  4.82194
    31      1     31 0.07600000   -7.112  0.11742  3.76031
    32      1     32 0.07600000   -7.115  1.88359  3.75727
    33      1     33 0.07630000   -6.915  1.88882  6.25386
    34      1     34 0.07630000   -6.910  0.12250  6.25775
    35      1     35 0.07310000   -9.179  0.11374  5.19807
    36      1     36 0.07310000   -9.183  1.88084  5.19211
    37      1     37 0.07450000   -8.986  1.89064  7.68840
    38      1     38 0.07450000   -8.979  0.12354  7.69526
    39      1     39 0.06420000  -11.248  0.11089  6.63427
    40      1     40 0.06420000  -11.254  1.87781  6.62506
    41      1     41 0.07850000  -11.049  1.89234  9.11775
    42      1     42 0.07850000  -11.041  0.12493  9.12747
    43      1     43 0.03200000  -13.310  0.11763  8.03523
    44      1     44 0.03200000  -13.318  1.86781  8.02864

Bonds 

     1      1      2      1
     2      2      3      2
     3      3      4      3
     4      4      5      4
     5      5      6      5
     6      6      7      6
     7      7      8      7
     8      8      9      8
     9      9     10      9
    10     10     11     10
    11     11     12     11
    12     12     13     12
    13     13     14     13
    14     14     15     14
    15     15     16      1
    16     16     17      1
    17     17     18      1
    18     18     19      2
    19     19     20      2
    20     20     21      3
    21     21     22      3
    22     22     23      4
    23     23     24      4
    24     24     25      5
    25     25     26      5
    26     26     27      6
    27     27     28      6
    28     28     29      7
    29     29     30      7
    30     30     31      8
    31     31     32      8
    32     32     33      9
    33     33     34      9
    34     34     35     10
    35     35     36     10
    36     36     37     11
    37     37     38     11
    38     38     39     12
    39     39     40     12
    40     40     41     13
    41     41     42     13
    42     42     43     14
    43     43     44     14

Angles 

     1      1      1      2      3
     2      2      2      3      4
     3      3      3      4      5
     4      4      4      5      6
     5      5      5      6      7
     6      6      6      7      8
     7      7      7      8      9
     8      8      8      9     10
     9      9      9     10     11
    10     10     10     11     12
    11     11     11     12     13
    12     12     12     13     14
    13     13     13     14     15
    14     14      2      1     16
    15     15      2      1     17
    16     16      2      1     18
    17     17      1      2     19
    18     18      1      2     20
    19     19      2      3     21
    20     20      2      3     22
    21     21      3      4     23
    22     22      3      4     24
    23     23      4      5     25
    24     24      4      5     26
    25     25      5      6     27
    26     26      5      6     28
    27     27      6      7     29
    28     28      6      7     30
    29     29      7      8     31
    30     30      7      8     32
    31     31      8      9     33
    32     32      8      9     34
    33     33      9     10     35
    34     34      9     10     36
    35     35     10     11     37
    36     36     10     11     38
    37     37     11     12     39
    38     38     11     12     40
    39     39     12     13     41
    40     40     12     13     42
    41     41     13     14     43
    42     42     13     14     44
    43     43      9      8     32
    44     44     13     12     40
    45     45      3      2     20
    46     46     41     13     42
    47     47     37     11     38
    48     48     23      4     24
    49     49     12     11     37
    50     50     19      2     20
    51     51     31      8     32
    52     52     16      1     18
    53     53      5      4     24
    54     54     13     12     39
    55     55     39     12     40
    56     56     16      1     17
    57     57      4      3     22
    58     58     21      3     22
    59     59      7      6     28
    60     60     10      9     34
    61     61     29      7     30
    62     62     43     14     44
    63     63     11     10     36
    64     64      5      4     23
    65     65      8      7     29
    66     66     11     10     35
    67     67      7      6     27
    68     68      3      2     19
    69     69     25      5     26
    70     70     14     13     41
    71     71     15     14     44
    72     72      4      3     21
    73     73      6      5     26
    74     74     33      9     34
    75     75     27      6     28
    76     76     10      9     33
    77     77     14     13     42
    78     78     35     10     36
    79     79      6      5     25
    80     80     12     11     38
    81     81      9      8     31
    82     82     17      1     18
    83     83      8      7     30
    84     84     15     14     43

Dihedrals

     1      1      4      3      2      1 
     2      2      5      4      3      2 
     3      3      6      5      4      3 
     4      4      7      6      5      4 
     5      5      8      7      6      5 
     6      6      9      8      7      6 
     7      7     10      9      8      7 
     8      8     11     10      9      8 
     9      9     12     11     10      9 
    10     10     13     12     11     10 
    11     11     14     13     12     11 
    12     12     15     14     13     12 
    13     13     16      1      2      3 
    14     14     23      4      3     21 
    15     15     35     10     11     12 
    16     16     35     10      9      8 
    17     17     28      6      7      8 
    18     18     42     13     12     39 
    19     19     41     13     12     40 
    20     20     21      3      2     20 
    21     21     22      3      2     19 
    22     22     38     11     10     35 
    23     23     25      5      4      3 
    24     24     39     12     11     10 
    25     25     31      8      7      6 
    26     26     37     11     10     35 
    27     27     41     13     12     39 
    28     28     44     14     13     41 
    29     29     38     11     10      9 
    30     30     39     12     13     14 
    31     31     20      2      1     18 
    32     32     25      5      4     23 
    33     33     42     13     12     40 
    34     34     43     14     13     41 
    35     35     38     11     10     36 
    36     36     40     12     11     38 
    37     37     25      5      6      7 
    38     38     28      6      5      4 
    39     39     37     11     10      9 
    40     40     30      7      6      5 
    41     41     29      7      8      9 
    42     42     33      9      8      7 
    43     43     29      7      6     28 
    44     44     30      7      6     27 
    45     45     34      9      8     32 
    46     46     32      8      7     30 
    47     47     33      9      8     32 
    48     48     34      9      8     31 
    49     49     44     14     13     12 
    50     50     27      6      5     25 
    51     51     23      4      5      6 
    52     52     26      5      4     24 
    53     53     35     10      9     33 
    54     54     41     13     12     11 
    55     55     34      9     10     11 
    56     56     37     11     12     13 
    57     57     40     12     11     10 
    58     58     39     12     11     37 
    59     59     32      8      9     10 
    60     60     26      5      4     23 
    61     61     25      5      4     24 
    62     62     24      4      3     22 
    63     63     26      5      4      3 
    64     64     43     14     13     12 
    65     65     38     11     12     13 
    66     66     36     10     11     12 
    67     67     31      8      7     29 
    68     68     43     14     13     42 
    69     69     30      7      8      9 
    70     70     27      6      5      4 
    71     71     23      4      3      2 
    72     72     32      8      7      6 
    73     73     42     13     12     11 
    74     74     24      4      3     21 
    75     75     23      4      3     22 
    76     76     19      2      1     16 
    77     77     35     10      9     34 
    78     78     36     10      9     33 
    79     79     21      3      2     19 
    80     80     20      2      1     17 
    81     81     19      2      1     18 
    82     82     22      3      2     20 
    83     83     37     11     10     36 
    84     84     21      3      4      5 
    85     85     34      9      8      7 
    86     86     31      8      9     10 
    87     87     24      4      3      2 
    88     88     36     10      9      8 
    89     89     24      4      5      6 
    90     90     33      9     10     11 
    91     91     39     12     11     38 
    92     92     40     12     11     37 
    93     93     36     10      9     34 
    94     94     44     14     13     42 
    95     95     41     13     14     15 
    96     96     27      6      7      8 
    97     97     20      2      3      4 
    98     98     17      1      2      3 
    99     99     40     12     13     14 
   100    100     28      6      5     26 
   101    101     31      8      7     30 
   102    102     32      8      7     29 
   103    103     28      6      5     25 
   104    104     27      6      5     26 
   105    105     19      2      3      4 
   106    106     22      3      2      1 
   107    107     29      7      6      5 
   108    108     18      1      2      3 
   109    109     19      2      1     17 
   110    110     20      2      1     16 
   111    111     42     13     14     15 
   112    112     21      3      2      1 
   113    113     22      3      4      5 
   114    114     33      9      8     31 
   115    115     26      5      6      7 
   116    116     29      7      6     27 
   117    117     30      7      6     28 

Impropers

     1      1      1     17     16      2 
     2      2      1     18     16      2 
     3      3      2      1     19      3 
     4      4      2      1      3     20 
     5      5      3      2      4     21 
     6      6      3      2      4     22 
     7      7      4      3      5     23 
     8      8      4      3      5     24 
     9      9      5     25      4      6 
    10     10      5     26      4      6 
    11     11      6     27      5      7 
    12     12      6     28      5      7 
    13     13      7     29      6      8 
    14     14      7      8     30      6 
    15     15      8      9      7     31 
    16     16      8      9      7     32 
    17     17      9     33     10      8 
    18     18      9     34     10      8 
    19     19     10      9     35     11 
    20     20     10      9     11     36 
    21     21     11     10     12     37 
    22     22     11     10     12     38 
    23     23     12     11     13     39 
    24     24     12     11     13     40 
    25     25     13     41     12     14 
    26     26     13     42     12     14 
    27     27     14     43     13     15 
    28     28     14     44     13     15 

