#C14_thiol

45 atoms
4 atom types

44 bonds
4 bond types

85 angles
6 angle types

120 dihedrals
6 dihedral types

28 impropers
1 improper types

-13.58525  36.41475  xlo xhi
-0.14631  49.85369  ylo yhi
-1.02723  48.97277  zlo zhi

Masses

1  12.011
2  32.06
3  1.008
4  1.008

Pair Coeffs

1  0.066  3.5
2  0.425  3.6
3  0.03  2.5
4  0.0  0.0

Bond Coeffs

1  268.0  1.529
2  222.0  1.81
3  340.0  1.09
4  274.0  1.336

Angle Coeffs

1  58.35  112.7
2  50.0  108.6
3  37.5  110.7
4  44.0  96.0
5  33.0  107.8
6  35.0  109.5

Dihedral Coeffs

1  1.3  -0.2  0.2  0.0
2  1.262  -0.198  0.465  0.0
3  0.0  0.0  0.3  0.0
4  -0.759  -0.282  0.68  0.0
5  0.0  0.0  0.48  0.0
6  0.0  0.0  0.452  0.0

Improper Coeffs

1  0.0  -1.0  2.0

Atoms # full

1  1  1  -0.2389   1   1   0
2  1  1  -0.1796  -0.52   1   0
3  1  1  -0.1784  -1.073   1   1.42367
4  1  1  -0.1791  -2.602   1.0018   1.42368
5  1  1  -0.1793  -3.149   1.0036   2.85035
6  1  1  -0.1789  -4.677   1.0036   2.85527
7  1  1  -0.1792  -5.22   1.0072   4.28326
8  1  1  -0.1789  -6.747   1.00541   4.29146
9  1  1  -0.179  -7.287   1.01082   5.72056
10  1  1  -0.1789  -8.814   1.00723   5.7304
11  1  1  -0.1784  -9.354   1.01084   7.15984
12  1  1  -0.1802  -10.882   1.00906   7.17131
13  1  1  -0.1839  -11.424   1.01087   8.60157
14  1  1   0.0124  -12.949   1.00727   8.60322
15  1  2  -0.4414  -13.585   1.01159   10.30352
16  1  3   0.0808   1.378   0.9987  -1.02723
17  1  3   0.0808   1.39   0.11203   0.50772
18  1  3   0.0808   1.391   1.88807   0.50616
19  1  3   0.0883  -0.88   0.11692  -0.54083
20  1  3   0.0883  -0.88   1.88315  -0.54087
21  1  3   0.0896  -0.705   1.8827   1.96024
22  1  3   0.0896  -0.707   0.11588   1.95947
23  1  3   0.0894  -2.972   0.11835   0.889
24  1  3   0.0894  -2.968   1.88544   0.88747
25  1  3   0.0895  -2.78   1.88731   3.38477
26  1  3   0.0895  -2.78   0.1211   3.38708
27  1  3   0.0897  -5.046   0.11853   2.32314
28  1  3   0.0897  -5.046   1.88594   2.31869
29  1  3   0.0897  -4.85   1.89237   4.81504
30  1  3   0.0897  -4.848   0.12612   4.82027
31  1  3   0.0898  -7.117   0.11963   3.76061
32  1  3   0.0898  -7.119   1.88583   3.7531
33  1  3   0.0902  -6.917   1.89727   6.24998
34  1  3   0.0902  -6.913   0.13111   6.25827
35  1  3   0.0902  -9.183   0.12143   5.19921
36  1  3   0.0902  -9.188   1.88754   5.19322
37  1  3   0.0914  -8.982   1.89627   7.68982
38  1  3   0.0914  -8.98   0.12952   7.69504
39  1  3   0.0914  -11.252   0.12405   6.63866
40  1  3   0.0914  -11.254   1.89071   6.63463
41  1  3   0.1018  -11.048   1.89784   9.12701
42  1  3   0.1018  -11.043   0.12764   9.12987
43  1  3   0.126  -13.332   0.11832   8.09186
44  1  3   0.126  -13.337   1.89154   8.08679
45  1  4   0.1453  -13.023  -0.14631   10.68043

Bonds

1  1  2  1
2  1  3  2
3  1  4  3
4  1  5  4
5  1  6  5
6  1  7  6
7  1  8  7
8  1  9  8
9  1  10  9
10  1  11  10
11  1  12  11
12  1  13  12
13  1  14  13
14  2  15  14
15  3  16  1
16  3  17  1
17  3  18  1
18  3  19  2
19  3  20  2
20  3  21  3
21  3  22  3
22  3  23  4
23  3  24  4
24  3  25  5
25  3  26  5
26  3  27  6
27  3  28  6
28  3  29  7
29  3  30  7
30  3  31  8
31  3  32  8
32  3  33  9
33  3  34  9
34  3  35  10
35  3  36  10
36  3  37  11
37  3  38  11
38  3  39  12
39  3  40  12
40  3  41  13
41  3  42  13
42  3  43  14
43  3  44  14
44  4  45  15

Angles

1  1  1  2  3
2  1  2  3  4
3  1  3  4  5
4  1  4  5  6
5  1  5  6  7
6  1  6  7  8
7  1  7  8  9
8  1  8  9  10
9  1  9  10  11
10  1  10  11  12
11  1  11  12  13
12  1  12  13  14
13  2  13  14  15
14  3  2  1  16
15  3  2  1  17
16  3  2  1  18
17  3  1  2  19
18  3  1  2  20
19  3  2  3  21
20  3  2  3  22
21  3  3  4  23
22  3  3  4  24
23  3  4  5  25
24  3  4  5  26
25  3  5  6  27
26  3  5  6  28
27  3  6  7  29
28  3  6  7  30
29  3  7  8  31
30  3  7  8  32
31  3  8  9  33
32  3  8  9  34
33  3  9  10  35
34  3  9  10  36
35  3  10  11  37
36  3  10  11  38
37  3  11  12  39
38  3  11  12  40
39  3  12  13  41
40  3  12  13  42
41  3  13  14  43
42  3  13  14  44
43  4  14  15  45
44  3  9  8  32
45  3  13  12  40
46  3  3  2  20
47  5  41  13  42
48  5  37  11  38
49  5  23  4  24
50  3  12  11  37
51  5  19  2  20
52  5  31  8  32
53  5  16  1  18
54  3  5  4  24
55  3  13  12  39
56  5  39  12  40
57  5  16  1  17
58  3  4  3  22
59  5  21  3  22
60  3  7  6  28
61  3  10  9  34
62  5  29  7  30
63  5  43  14  44
64  3  11  10  36
65  3  5  4  23
66  3  8  7  29
67  3  11  10  35
68  3  7  6  27
69  3  3  2  19
70  5  25  5  26
71  3  14  13  41
72  6  15  14  44
73  3  4  3  21
74  3  6  5  26
75  5  33  9  34
76  5  27  6  28
77  3  10  9  33
78  3  14  13  42
79  5  35  10  36
80  3  6  5  25
81  3  12  11  38
82  3  9  8  31
83  5  17  1  18
84  3  8  7  30
85  6  15  14  43

Dihedrals

1  1  4  3  2  1
2  1  5  4  3  2
3  1  6  5  4  3
4  1  7  6  5  4
5  1  8  7  6  5
6  1  9  8  7  6
7  1  10  9  8  7
8  1  11  10  9  8
9  1  12  11  10  9
10  1  13  12  11  10
11  1  14  13  12  11
12  2  15  14  13  12
13  3  16  1  2  3
14  4  45  15  14  13
15  3  23  4  3  21
16  3  35  10  11  12
17  3  35  10  9  8
18  3  28  6  7  8
19  3  42  13  12  39
20  3  41  13  12  40
21  3  21  3  2  20
22  3  22  3  2  19
23  3  38  11  10  35
24  3  25  5  4  3
25  3  39  12  11  10
26  3  31  8  7  6
27  3  37  11  10  35
28  3  41  13  12  39
29  3  44  14  13  41
30  3  38  11  10  9
31  3  39  12  13  14
32  3  20  2  1  18
33  3  25  5  4  23
34  3  42  13  12  40
35  3  43  14  13  41
36  3  38  11  10  36
37  3  40  12  11  38
38  3  25  5  6  7
39  3  28  6  5  4
40  3  37  11  10  9
41  3  30  7  6  5
42  3  29  7  8  9
43  3  33  9  8  7
44  3  29  7  6  28
45  3  30  7  6  27
46  3  34  9  8  32
47  3  32  8  7  30
48  3  33  9  8  32
49  3  34  9  8  31
50  3  44  14  13  12
51  3  27  6  5  25
52  3  23  4  5  6
53  3  26  5  4  24
54  5  45  15  14  44
55  3  35  10  9  33
56  3  41  13  12  11
57  3  34  9  10  11
58  3  37  11  12  13
59  3  40  12  11  10
60  3  39  12  11  37
61  3  32  8  9  10
62  3  26  5  4  23
63  3  25  5  4  24
64  3  24  4  3  22
65  3  26  5  4  3
66  3  43  14  13  12
67  3  38  11  12  13
68  3  36  10  11  12
69  3  31  8  7  29
70  3  43  14  13  42
71  3  30  7  8  9
72  3  27  6  5  4
73  3  23  4  3  2
74  3  32  8  7  6
75  3  42  13  12  11
76  3  24  4  3  21
77  3  23  4  3  22
78  3  19  2  1  16
79  3  35  10  9  34
80  3  36  10  9  33
81  3  21  3  2  19
82  3  20  2  1  17
83  3  19  2  1  18
84  3  22  3  2  20
85  3  37  11  10  36
86  3  21  3  4  5
87  3  34  9  8  7
88  3  31  8  9  10
89  3  24  4  3  2
90  3  36  10  9  8
91  3  24  4  5  6
92  3  33  9  10  11
93  3  39  12  11  38
94  3  40  12  11  37
95  3  36  10  9  34
96  3  44  14  13  42
97  6  41  13  14  15
98  3  27  6  7  8
99  3  20  2  3  4
100  3  17  1  2  3
101  3  40  12  13  14
102  3  28  6  5  26
103  3  31  8  7  30
104  3  32  8  7  29
105  3  28  6  5  25
106  3  27  6  5  26
107  3  19  2  3  4
108  3  22  3  2  1
109  3  29  7  6  5
110  3  18  1  2  3
111  3  19  2  1  17
112  3  20  2  1  16
113  6  42  13  14  15
114  3  21  3  2  1
115  3  22  3  4  5
116  3  33  9  8  31
117  3  26  5  6  7
118  3  29  7  6  27
119  3  30  7  6  28
120  5  45  15  14  43

Impropers

1  1  1  17  16  2
2  1  1  18  16  2
3  1  2  1  19  3
4  1  2  1  3  20
5  1  3  2  4  21
6  1  3  2  4  22
7  1  4  3  5  23
8  1  4  3  5  24
9  1  5  25  4  6
10  1  5  26  4  6
11  1  6  27  5  7
12  1  6  28  5  7
13  1  7  29  6  8
14  1  7  8  30  6
15  1  8  9  7  31
16  1  8  9  7  32
17  1  9  33  10  8
18  1  9  34  10  8
19  1  10  9  35  11
20  1  10  9  11  36
21  1  11  10  12  37
22  1  11  10  12  38
23  1  12  11  13  39
24  1  12  11  13  40
25  1  13  41  12  14
26  1  13  42  12  14
27  1  14  43  13  15
28  1  14  44  13  15
