LAMMPS data file Created by LigParGen - (Written by Leela S. Dodda)

      46 atoms
      45 bonds
      87 angles
     123 dihedrals
      29 impropers
 
      46 atom types
      45 bond types
      87 angle types
     123 dihedral types
      29 improper types
 
  -14.446210    35.553790 xlo xhi
    0.104520    50.104520 ylo yhi
   -1.026620    48.973380 zlo zhi

Masses

       1     12.011  
       2     12.011  
       3     12.011  
       4     12.011  
       5     12.011  
       6     12.011  
       7     12.011  
       8     12.011  
       9     12.011  
      10     12.011  
      11     12.011  
      12     12.011  
      13     12.011  
      14     12.011  
      15     14.007  
      16      1.008  
      17      1.008  
      18      1.008  
      19      1.008  
      20      1.008  
      21      1.008  
      22      1.008  
      23      1.008  
      24      1.008  
      25      1.008  
      26      1.008  
      27      1.008  
      28      1.008  
      29      1.008  
      30      1.008  
      31      1.008  
      32      1.008  
      33      1.008  
      34      1.008  
      35      1.008  
      36      1.008  
      37      1.008  
      38      1.008  
      39      1.008  
      40      1.008  
      41      1.008  
      42      1.008  
      43      1.008  
      44      1.008  
      45      1.008  
      46      1.008  

Pair Coeffs 

       1      0.066  3.5000000 
       2      0.066  3.5000000 
       3      0.066  3.5000000 
       4      0.066  3.5000000 
       5      0.066  3.5000000 
       6      0.066  3.5000000 
       7      0.066  3.5000000 
       8      0.066  3.5000000 
       9      0.066  3.5000000 
      10      0.066  3.5000000 
      11      0.066  3.5000000 
      12      0.066  3.5000000 
      13      0.066  3.5000000 
      14      0.066  3.5000000 
      15      0.170  3.3000000 
      16      0.030  2.5000000 
      17      0.030  2.5000000 
      18      0.030  2.5000000 
      19      0.030  2.5000000 
      20      0.030  2.5000000 
      21      0.030  2.5000000 
      22      0.030  2.5000000 
      23      0.030  2.5000000 
      24      0.030  2.5000000 
      25      0.030  2.5000000 
      26      0.030  2.5000000 
      27      0.030  2.5000000 
      28      0.030  2.5000000 
      29      0.030  2.5000000 
      30      0.030  2.5000000 
      31      0.030  2.5000000 
      32      0.030  2.5000000 
      33      0.030  2.5000000 
      34      0.030  2.5000000 
      35      0.030  2.5000000 
      36      0.030  2.5000000 
      37      0.030  2.5000000 
      38      0.030  2.5000000 
      39      0.030  2.5000000 
      40      0.030  2.5000000 
      41      0.030  2.5000000 
      42      0.030  2.5000000 
      43      0.030  2.5000000 
      44      0.030  2.5000000 
      45      0.000  0.0000000 
      46      0.000  0.0000000 

Bond Coeffs 

       1   268.0000     1.5290 
       2   268.0000     1.5290 
       3   268.0000     1.5290 
       4   268.0000     1.5290 
       5   268.0000     1.5290 
       6   268.0000     1.5290 
       7   268.0000     1.5290 
       8   268.0000     1.5290 
       9   268.0000     1.5290 
      10   268.0000     1.5290 
      11   268.0000     1.5290 
      12   268.0000     1.5290 
      13   268.0000     1.5290 
      14   382.0000     1.4480 
      15   340.0000     1.0900 
      16   340.0000     1.0900 
      17   340.0000     1.0900 
      18   340.0000     1.0900 
      19   340.0000     1.0900 
      20   340.0000     1.0900 
      21   340.0000     1.0900 
      22   340.0000     1.0900 
      23   340.0000     1.0900 
      24   340.0000     1.0900 
      25   340.0000     1.0900 
      26   340.0000     1.0900 
      27   340.0000     1.0900 
      28   340.0000     1.0900 
      29   340.0000     1.0900 
      30   340.0000     1.0900 
      31   340.0000     1.0900 
      32   340.0000     1.0900 
      33   340.0000     1.0900 
      34   340.0000     1.0900 
      35   340.0000     1.0900 
      36   340.0000     1.0900 
      37   340.0000     1.0900 
      38   340.0000     1.0900 
      39   340.0000     1.0900 
      40   340.0000     1.0900 
      41   340.0000     1.0900 
      42   340.0000     1.0900 
      43   340.0000     1.0900 
      44   434.0000     1.0100 
      45   434.0000     1.0100 

Angle Coeffs 

       1     58.350    112.700
       2     58.350    112.700
       3     58.350    112.700
       4     58.350    112.700
       5     58.350    112.700
       6     58.350    112.700
       7     58.350    112.700
       8     58.350    112.700
       9     58.350    112.700
      10     58.350    112.700
      11     58.350    112.700
      12     58.350    112.700
      13     56.200    109.470
      14     37.500    110.700
      15     37.500    110.700
      16     37.500    110.700
      17     37.500    110.700
      18     37.500    110.700
      19     37.500    110.700
      20     37.500    110.700
      21     37.500    110.700
      22     37.500    110.700
      23     37.500    110.700
      24     37.500    110.700
      25     37.500    110.700
      26     37.500    110.700
      27     37.500    110.700
      28     37.500    110.700
      29     37.500    110.700
      30     37.500    110.700
      31     37.500    110.700
      32     37.500    110.700
      33     37.500    110.700
      34     37.500    110.700
      35     37.500    110.700
      36     37.500    110.700
      37     37.500    110.700
      38     37.500    110.700
      39     37.500    110.700
      40     37.500    110.700
      41     37.500    110.700
      42     37.500    110.700
      43     35.000    109.500
      44     35.000    109.500
      45     33.000    107.800
      46     37.500    110.700
      47     33.000    107.800
      48     33.000    107.800
      49     33.000    107.800
      50     33.000    107.800
      51     37.500    110.700
      52     33.000    107.800
      53     33.000    107.800
      54     33.000    107.800
      55     37.500    110.700
      56     33.000    107.800
      57     37.500    110.700
      58     37.500    110.700
      59     33.000    107.800
      60     37.500    110.700
      61     43.600    106.400
      62     37.500    110.700
      63     37.500    110.700
      64     37.500    110.700
      65     37.500    110.700
      66     37.500    110.700
      67     37.500    110.700
      68     33.000    107.800
      69     37.500    110.700
      70     37.500    110.700
      71     33.000    107.800
      72     37.500    110.700
      73     33.000    107.800
      74     37.500    110.700
      75     37.500    110.700
      76     35.000    109.500
      77     37.500    110.700
      78     37.500    110.700
      79     37.500    110.700
      80     33.000    107.800
      81     35.000    109.500
      82     33.000    107.800
      83     37.500    110.700
      84     37.500    110.700
      85     37.500    110.700
      86     33.000    107.800
      87     37.500    110.700

Dihedral Coeffs  

       1      1.300     -0.200      0.200      0.000 
       2      1.300     -0.200      0.200      0.000 
       3      1.300     -0.200      0.200      0.000 
       4      1.300     -0.200      0.200      0.000 
       5      1.300     -0.200      0.200      0.000 
       6      1.300     -0.200      0.200      0.000 
       7      1.300     -0.200      0.200      0.000 
       8      1.300     -0.200      0.200      0.000 
       9      1.300     -0.200      0.200      0.000 
      10      1.300     -0.200      0.200      0.000 
      11      1.300     -0.200      0.200      0.000 
      12      2.392     -0.674      0.550      0.000 
      13      0.000      0.000      0.300      0.000 
      14     -0.190     -0.417      0.418      0.000 
      15      0.000      0.000      0.300      0.000 
      16      0.000      0.000      0.300      0.000 
      17      0.000      0.000      0.300      0.000 
      18      0.000      0.000      0.300      0.000 
      19      0.000      0.000      0.300      0.000 
      20      0.000      0.000      0.300      0.000 
      21      0.000      0.000      0.300      0.000 
      22      0.000      0.000      0.300      0.000 
      23      0.000      0.000      0.300      0.000 
      24      0.000      0.000      0.300      0.000 
      25      0.000      0.000      0.300      0.000 
      26      0.000      0.000      0.300      0.000 
      27      0.000      0.000      0.300      0.000 
      28      0.000      0.000      0.300      0.000 
      29      0.000      0.000      0.300      0.000 
      30      0.000      0.000      0.300      0.000 
      31      0.000      0.000      0.300      0.000 
      32      0.000      0.000      0.300      0.000 
      33      0.000      0.000      0.300      0.000 
      34      0.000      0.000      0.300      0.000 
      35      0.000      0.000      0.300      0.000 
      36      0.000      0.000      0.300      0.000 
      37      0.000      0.000      0.300      0.000 
      38      0.000      0.000      0.300      0.000 
      39      0.000      0.000      0.300      0.000 
      40      0.000      0.000      0.300      0.000 
      41      0.000      0.000      0.300      0.000 
      42      0.000      0.000      0.300      0.000 
      43      0.000      0.000      0.300      0.000 
      44      0.000      0.000      0.300      0.000 
      45      0.000      0.000      0.300      0.000 
      46      0.000      0.000      0.300      0.000 
      47      0.000      0.000      0.300      0.000 
      48      0.000      0.000      0.300      0.000 
      49      0.000      0.000      0.300      0.000 
      50     -0.190     -0.417      0.418      0.000 
      51      0.000      0.000      0.300      0.000 
      52      0.000      0.000      0.300      0.000 
      53      0.000      0.000      0.300      0.000 
      54      0.000      0.000      0.300      0.000 
      55      0.000      0.000      0.400      0.000 
      56      0.000      0.000      0.300      0.000 
      57      0.000      0.000      0.300      0.000 
      58      0.000      0.000      0.300      0.000 
      59      0.000      0.000      0.300      0.000 
      60      0.000      0.000      0.300      0.000 
      61      0.000      0.000      0.300      0.000 
      62      0.000      0.000      0.300      0.000 
      63      0.000      0.000      0.300      0.000 
      64      0.000      0.000      0.300      0.000 
      65      0.000      0.000      0.300      0.000 
      66      0.000      0.000      0.300      0.000 
      67      0.000      0.000      0.300      0.000 
      68      0.000      0.000      0.300      0.000 
      69      0.000      0.000      0.300      0.000 
      70      0.000      0.000      0.300      0.000 
      71      0.000      0.000      0.300      0.000 
      72      0.000      0.000      0.300      0.000 
      73      0.000      0.000      0.300      0.000 
      74      0.000      0.000      0.300      0.000 
      75      0.000      0.000      0.300      0.000 
      76      0.000      0.000      0.300      0.000 
      77      0.000      0.000      0.300      0.000 
      78      0.000      0.000      0.300      0.000 
      79      0.000      0.000      0.300      0.000 
      80      0.000      0.000      0.300      0.000 
      81      0.000      0.000      0.300      0.000 
      82      0.000      0.000      0.300      0.000 
      83      0.000      0.000      0.300      0.000 
      84      0.000      0.000      0.300      0.000 
      85      0.000      0.000      0.300      0.000 
      86      0.000      0.000      0.300      0.000 
      87      0.000      0.000      0.300      0.000 
      88      0.000      0.000      0.300      0.000 
      89      0.000      0.000      0.300      0.000 
      90      0.000      0.000      0.300      0.000 
      91      0.000      0.000      0.300      0.000 
      92      0.000      0.000      0.300      0.000 
      93      0.000      0.000      0.300      0.000 
      94      0.000      0.000      0.300      0.000 
      95      0.000      0.000      0.300      0.000 
      96      0.000      0.000      0.300      0.000 
      97      0.000      0.000      0.300      0.000 
      98     -1.013     -0.709      0.473      0.000 
      99      0.000      0.000      0.300      0.000 
     100      0.000      0.000      0.300      0.000 
     101      0.000      0.000      0.300      0.000 
     102      0.000      0.000      0.300      0.000 
     103      0.000      0.000      0.300      0.000 
     104      0.000      0.000      0.300      0.000 
     105      0.000      0.000      0.300      0.000 
     106      0.000      0.000      0.300      0.000 
     107      0.000      0.000      0.300      0.000 
     108      0.000      0.000      0.300      0.000 
     109      0.000      0.000      0.300      0.000 
     110      0.000      0.000      0.300      0.000 
     111      0.000      0.000      0.300      0.000 
     112      0.000      0.000      0.300      0.000 
     113      0.000      0.000      0.300      0.000 
     114     -1.013     -0.709      0.473      0.000 
     115      0.000      0.000      0.300      0.000 
     116      0.000      0.000      0.300      0.000 
     117      0.000      0.000      0.400      0.000 
     118      0.000      0.000      0.300      0.000 
     119      0.000      0.000      0.400      0.000 
     120      0.000      0.000      0.300      0.000 
     121      0.000      0.000      0.300      0.000 
     122      0.000      0.000      0.300      0.000 
     123      0.000      0.000      0.400      0.000 

Improper Coeffs 

       1      0.000      -1       2 
       2      0.000      -1       2 
       3      0.000      -1       2 
       4      0.000      -1       2 
       5      0.000      -1       2 
       6      0.000      -1       2 
       7      0.000      -1       2 
       8      0.000      -1       2 
       9      0.000      -1       2 
      10      0.000      -1       2 
      11      0.000      -1       2 
      12      0.000      -1       2 
      13      0.000      -1       2 
      14      0.000      -1       2 
      15      0.000      -1       2 
      16      0.000      -1       2 
      17      0.000      -1       2 
      18      0.000      -1       2 
      19      0.000      -1       2 
      20      0.000      -1       2 
      21      0.000      -1       2 
      22      0.000      -1       2 
      23      0.000      -1       2 
      24      0.000      -1       2 
      25      0.000      -1       2 
      26      0.000      -1       2 
      27      0.000      -1       2 
      28      0.000      -1       2 
      29      0.000      -1       2 

Atoms 

     1      1      1 -0.23880000    1.000  1.00000  0.00000
     2      1      2 -0.17960000   -0.520  1.00000  0.00000
     3      1      3 -0.17860000   -1.073  1.00000  1.42370
     4      1      4 -0.17920000   -2.600  0.99820  1.42370
     5      1      5 -0.17930000   -3.146  1.00001  2.85045
     6      1      6 -0.17910000   -4.673  0.99642  2.85536
     7      1      7 -0.17940000   -5.214  1.00005  4.28326
     8      1      8 -0.17920000   -6.740  0.99467  4.28982
     9      1      9 -0.17920000   -7.280  0.99650  5.71804
    10      1     10 -0.17920000   -8.807  0.99292  5.72459
    11      1     11 -0.17830000   -9.346  0.99656  7.15324
    12      1     12 -0.17920000  -10.873  0.99118  7.16307
    13      1     13 -0.18130000  -11.412  0.99303  8.59356
    14      1     14 0.08820000  -12.939  0.98946  8.60502
    15      1     15 -0.92590000  -13.428  0.99302  9.97673
    16      1     16 0.08080000    1.379  0.99870 -1.02662
    17      1     17 0.08080000    1.390  0.11258  0.50876
    18      1     18 0.08080000    1.390  1.88886  0.50661
    19      1     19 0.08830000   -0.881  0.11668 -0.53955
    20      1     20 0.08830000   -0.881  1.88356 -0.53970
    21      1     21 0.08950000   -0.706  1.88411  1.95949
    22      1     22 0.08950000   -0.704  0.11724  1.96031
    23      1     23 0.08940000   -2.968  0.11351  0.88991
    24      1     24 0.08940000   -2.970  1.88022  0.88684
    25      1     25 0.08950000   -2.778  1.88518  3.38372
    26      1     26 0.08950000   -2.774  0.11889  3.38758
    27      1     27 0.08950000   -5.041  0.11031  2.32423
    28      1     28 0.08950000   -5.045  1.87712  2.31816
    29      1     29 0.08970000   -4.845  1.88661  4.81385
    30      1     30 0.08970000   -4.839  0.12031  4.82070
    31      1     31 0.08960000   -7.107  0.10884  3.75712
    32      1     32 0.08960000   -7.114  1.87576  3.75348
    33      1     33 0.09000000   -6.910  1.88168  6.24973
    34      1     34 0.09000000   -6.906  0.11544  6.25355
    35      1     35 0.08950000   -9.174  0.10721  5.19268
    36      1     36 0.08950000   -9.179  1.87329  5.18656
    37      1     37 0.09090000   -8.976  1.88355  7.68254
    38      1     38 0.09090000   -8.970  0.11649  7.68932
    39      1     39 0.08910000  -11.240  0.10497  6.63093
    40      1     40 0.08910000  -11.248  1.87161  6.62652
    41      1     41 0.09850000  -11.037  1.87838  9.12297
    42      1     42 0.09850000  -11.033  0.11145  9.12585
    43      1     43 0.07750000  -13.319  0.10452  8.08328
    44      1     44 0.07750000  -13.320  1.87522  8.08460
    45      1     45 0.33190000  -13.096  0.15969 10.46147
    46      1     46 0.33190000  -14.446  0.93286  9.97109

Bonds 

     1      1      2      1
     2      2      3      2
     3      3      4      3
     4      4      5      4
     5      5      6      5
     6      6      7      6
     7      7      8      7
     8      8      9      8
     9      9     10      9
    10     10     11     10
    11     11     12     11
    12     12     13     12
    13     13     14     13
    14     14     15     14
    15     15     16      1
    16     16     17      1
    17     17     18      1
    18     18     19      2
    19     19     20      2
    20     20     21      3
    21     21     22      3
    22     22     23      4
    23     23     24      4
    24     24     25      5
    25     25     26      5
    26     26     27      6
    27     27     28      6
    28     28     29      7
    29     29     30      7
    30     30     31      8
    31     31     32      8
    32     32     33      9
    33     33     34      9
    34     34     35     10
    35     35     36     10
    36     36     37     11
    37     37     38     11
    38     38     39     12
    39     39     40     12
    40     40     41     13
    41     41     42     13
    42     42     43     14
    43     43     44     14
    44     44     45     15
    45     45     46     15

Angles 

     1      1      1      2      3
     2      2      2      3      4
     3      3      3      4      5
     4      4      4      5      6
     5      5      5      6      7
     6      6      6      7      8
     7      7      7      8      9
     8      8      8      9     10
     9      9      9     10     11
    10     10     10     11     12
    11     11     11     12     13
    12     12     12     13     14
    13     13     13     14     15
    14     14      2      1     16
    15     15      2      1     17
    16     16      2      1     18
    17     17      1      2     19
    18     18      1      2     20
    19     19      2      3     21
    20     20      2      3     22
    21     21      3      4     23
    22     22      3      4     24
    23     23      4      5     25
    24     24      4      5     26
    25     25      5      6     27
    26     26      5      6     28
    27     27      6      7     29
    28     28      6      7     30
    29     29      7      8     31
    30     30      7      8     32
    31     31      8      9     33
    32     32      8      9     34
    33     33      9     10     35
    34     34      9     10     36
    35     35     10     11     37
    36     36     10     11     38
    37     37     11     12     39
    38     38     11     12     40
    39     39     12     13     41
    40     40     12     13     42
    41     41     13     14     43
    42     42     13     14     44
    43     43     14     15     45
    44     44     14     15     46
    45     45     23      4     24
    46     46     12     11     37
    47     47     31      8     32
    48     48     39     12     40
    49     49     43     14     44
    50     50     21      3     22
    51     51     11     10     36
    52     52     35     10     36
    53     53     25      5     26
    54     54     19      2     20
    55     55      6      5     26
    56     56     16      1     17
    57     57     10      9     33
    58     58     12     11     38
    59     59     29      7     30
    60     60      8      7     30
    61     61     45     15     46
    62     62      5      4     24
    63     63      4      3     22
    64     64     14     13     41
    65     65     14     13     42
    66     66     11     10     35
    67     67      7      6     27
    68     68     41     13     42
    69     69      9      8     31
    70     70      3      2     20
    71     71     27      6     28
    72     72     13     12     39
    73     73     16      1     18
    74     74      7      6     28
    75     75      8      7     29
    76     76     15     14     44
    77     77      4      3     21
    78     78     13     12     40
    79     79      9      8     32
    80     80     37     11     38
    81     81     15     14     43
    82     82     33      9     34
    83     83     10      9     34
    84     84      5      4     23
    85     85      3      2     19
    86     86     17      1     18
    87     87      6      5     25

Dihedrals

     1      1      4      3      2      1 
     2      2      5      4      3      2 
     3      3      6      5      4      3 
     4      4      7      6      5      4 
     5      5      8      7      6      5 
     6      6      9      8      7      6 
     7      7     10      9      8      7 
     8      8     11     10      9      8 
     9      9     12     11     10      9 
    10     10     13     12     11     10 
    11     11     14     13     12     11 
    12     12     15     14     13     12 
    13     13     16      1      2      3 
    14     14     45     15     14     13 
    15     15     23      4      3     21 
    16     16     35     10     11     12 
    17     17     35     10      9      8 
    18     18     28      6      7      8 
    19     19     42     13     12     39 
    20     20     41     13     12     40 
    21     21     21      3      2     20 
    22     22     22      3      2     19 
    23     23     38     11     10     35 
    24     24     25      5      4      3 
    25     25     39     12     11     10 
    26     26     31      8      7      6 
    27     27     37     11     10     35 
    28     28     41     13     12     39 
    29     29     44     14     13     41 
    30     30     38     11     10      9 
    31     31     39     12     13     14 
    32     32     20      2      1     18 
    33     33     25      5      4     23 
    34     34     42     13     12     40 
    35     35     43     14     13     41 
    36     36     38     11     10     36 
    37     37     40     12     11     38 
    38     38     25      5      6      7 
    39     39     28      6      5      4 
    40     40     37     11     10      9 
    41     41     30      7      6      5 
    42     42     29      7      8      9 
    43     43     33      9      8      7 
    44     44     29      7      6     28 
    45     45     30      7      6     27 
    46     46     34      9      8     32 
    47     47     32      8      7     30 
    48     48     33      9      8     32 
    49     49     34      9      8     31 
    50     50     46     15     14     13 
    51     51     44     14     13     12 
    52     52     27      6      5     25 
    53     53     23      4      5      6 
    54     54     26      5      4     24 
    55     55     45     15     14     44 
    56     56     35     10      9     33 
    57     57     41     13     12     11 
    58     58     34      9     10     11 
    59     59     37     11     12     13 
    60     60     40     12     11     10 
    61     61     39     12     11     37 
    62     62     32      8      9     10 
    63     63     26      5      4     23 
    64     64     25      5      4     24 
    65     65     24      4      3     22 
    66     66     26      5      4      3 
    67     67     43     14     13     12 
    68     68     38     11     12     13 
    69     69     36     10     11     12 
    70     70     31      8      7     29 
    71     71     43     14     13     42 
    72     72     30      7      8      9 
    73     73     27      6      5      4 
    74     74     23      4      3      2 
    75     75     32      8      7      6 
    76     76     42     13     12     11 
    77     77     24      4      3     21 
    78     78     23      4      3     22 
    79     79     19      2      1     16 
    80     80     35     10      9     34 
    81     81     36     10      9     33 
    82     82     21      3      2     19 
    83     83     20      2      1     17 
    84     84     19      2      1     18 
    85     85     22      3      2     20 
    86     86     37     11     10     36 
    87     87     21      3      4      5 
    88     88     34      9      8      7 
    89     89     31      8      9     10 
    90     90     24      4      3      2 
    91     91     36     10      9      8 
    92     92     24      4      5      6 
    93     93     33      9     10     11 
    94     94     39     12     11     38 
    95     95     40     12     11     37 
    96     96     36     10      9     34 
    97     97     44     14     13     42 
    98     98     41     13     14     15 
    99     99     27      6      7      8 
   100    100     20      2      3      4 
   101    101     17      1      2      3 
   102    102     40     12     13     14 
   103    103     28      6      5     26 
   104    104     31      8      7     30 
   105    105     32      8      7     29 
   106    106     28      6      5     25 
   107    107     27      6      5     26 
   108    108     19      2      3      4 
   109    109     22      3      2      1 
   110    110     29      7      6      5 
   111    111     18      1      2      3 
   112    112     19      2      1     17 
   113    113     20      2      1     16 
   114    114     42     13     14     15 
   115    115     21      3      2      1 
   116    116     22      3      4      5 
   117    117     46     15     14     44 
   118    118     33      9      8     31 
   119    119     46     15     14     43 
   120    120     26      5      6      7 
   121    121     29      7      6     27 
   122    122     30      7      6     28 
   123    123     45     15     14     43 

Impropers

     1      1      1     17     16      2 
     2      2      1     18     16      2 
     3      3      2      1     19      3 
     4      4      2      1      3     20 
     5      5      3      2      4     21 
     6      6      3      2      4     22 
     7      7      4      3      5     23 
     8      8      4      3      5     24 
     9      9      5     25      4      6 
    10     10      5     26      4      6 
    11     11      6     27      5      7 
    12     12      6     28      5      7 
    13     13      7     29      6      8 
    14     14      7      8     30      6 
    15     15      8      9      7     31 
    16     16      8      9      7     32 
    17     17      9     33     10      8 
    18     18      9     34     10      8 
    19     19     10      9     35     11 
    20     20     10      9     11     36 
    21     21     11     10     12     37 
    22     22     11     10     12     38 
    23     23     12     11     13     39 
    24     24     12     11     13     40 
    25     25     13     41     12     14 
    26     26     13     42     12     14 
    27     27     14     43     13     15 
    28     28     14     44     13     15 
    29     29     15     45     46     14 

