#C14_amine

46 atoms
4 atom types

45 bonds
4 bond types

87 angles
6 angle types

123 dihedrals
6 dihedral types

29 impropers
1 improper types

-14.44621  35.55379  xlo xhi
0  50.10452  ylo yhi
-1.02662  48.97338  zlo zhi

Masses

1  12.011
2  14.007
3  1.008
4  1.008

Pair Coeffs

1  0.066  3.5
2  0.17  3.3
3  0.03  2.5
4  0.0  0.0

Bond Coeffs

1  268.0  1.529
2  382.0  1.448
3  340.0  1.09
4  434.0  1.01

Angle Coeffs

1  58.35  112.7
2  56.2  109.47
3  37.5  110.7
4  35.0  109.5
5  33.0  107.8
6  43.6  106.4

Dihedral Coeffs

1  1.3  -0.2  0.2  0.0
2  2.392  -0.674  0.55  0.0
3  0.0  0.0  0.3  0.0
4  -0.19  -0.417  0.418  0.0
5  0.0  0.0  0.4  0.0
6  -1.013  -0.709  0.473  0.0

Improper Coeffs

1  0.0  -1.0  2.0

Atoms # full

1  1  1  -0.2388   1   1   0
2  1  1  -0.1796  -0.52   1   0
3  1  1  -0.1786  -1.073   1   1.4237
4  1  1  -0.1792  -2.6   0.9982   1.4237
5  1  1  -0.1793  -3.146   1.00001   2.85045
6  1  1  -0.1791  -4.673   0.99642   2.85536
7  1  1  -0.1794  -5.214   1.00005   4.28326
8  1  1  -0.1792  -6.74   0.99467   4.28982
9  1  1  -0.1792  -7.28   0.9965   5.71804
10  1  1  -0.1792  -8.807   0.99292   5.72459
11  1  1  -0.1783  -9.346   0.99656   7.15324
12  1  1  -0.1792  -10.873   0.99118   7.16307
13  1  1  -0.1813  -11.412   0.99303   8.59356
14  1  1   0.0882  -12.939   0.98946   8.60502
15  1  2  -0.9259  -13.428   0.99302   9.97673
16  1  3   0.0808   1.379   0.9987  -1.02662
17  1  3   0.0808   1.39   0.11258   0.50876
18  1  3   0.0808   1.39   1.88886   0.50661
19  1  3   0.0883  -0.881   0.11668  -0.53955
20  1  3   0.0883  -0.881   1.88356  -0.5397
21  1  3   0.0895  -0.706   1.88411   1.95949
22  1  3   0.0895  -0.704   0.11724   1.96031
23  1  3   0.0894  -2.968   0.11351   0.88991
24  1  3   0.0894  -2.97   1.88022   0.88684
25  1  3   0.0895  -2.778   1.88518   3.38372
26  1  3   0.0895  -2.774   0.11889   3.38758
27  1  3   0.0895  -5.041   0.11031   2.32423
28  1  3   0.0895  -5.045   1.87712   2.31816
29  1  3   0.0897  -4.845   1.88661   4.81385
30  1  3   0.0897  -4.839   0.12031   4.8207
31  1  3   0.0896  -7.107   0.10884   3.75712
32  1  3   0.0896  -7.114   1.87576   3.75348
33  1  3   0.09  -6.91   1.88168   6.24973
34  1  3   0.09  -6.906   0.11544   6.25355
35  1  3   0.0895  -9.174   0.10721   5.19268
36  1  3   0.0895  -9.179   1.87329   5.18656
37  1  3   0.0909  -8.976   1.88355   7.68254
38  1  3   0.0909  -8.97   0.11649   7.68932
39  1  3   0.0891  -11.24   0.10497   6.63093
40  1  3   0.0891  -11.248   1.87161   6.62652
41  1  3   0.0985  -11.037   1.87838   9.12297
42  1  3   0.0985  -11.033   0.11145   9.12585
43  1  3   0.0775  -13.319   0.10452   8.08328
44  1  3   0.0775  -13.32   1.87522   8.0846
45  1  4   0.3319  -13.096   0.15969   10.46147
46  1  4   0.3319  -14.446   0.93286   9.97109

Bonds

1  1  2  1
2  1  3  2
3  1  4  3
4  1  5  4
5  1  6  5
6  1  7  6
7  1  8  7
8  1  9  8
9  1  10  9
10  1  11  10
11  1  12  11
12  1  13  12
13  1  14  13
14  2  15  14
15  3  16  1
16  3  17  1
17  3  18  1
18  3  19  2
19  3  20  2
20  3  21  3
21  3  22  3
22  3  23  4
23  3  24  4
24  3  25  5
25  3  26  5
26  3  27  6
27  3  28  6
28  3  29  7
29  3  30  7
30  3  31  8
31  3  32  8
32  3  33  9
33  3  34  9
34  3  35  10
35  3  36  10
36  3  37  11
37  3  38  11
38  3  39  12
39  3  40  12
40  3  41  13
41  3  42  13
42  3  43  14
43  3  44  14
44  4  45  15
45  4  46  15

Angles

1  1  1  2  3
2  1  2  3  4
3  1  3  4  5
4  1  4  5  6
5  1  5  6  7
6  1  6  7  8
7  1  7  8  9
8  1  8  9  10
9  1  9  10  11
10  1  10  11  12
11  1  11  12  13
12  1  12  13  14
13  2  13  14  15
14  3  2  1  16
15  3  2  1  17
16  3  2  1  18
17  3  1  2  19
18  3  1  2  20
19  3  2  3  21
20  3  2  3  22
21  3  3  4  23
22  3  3  4  24
23  3  4  5  25
24  3  4  5  26
25  3  5  6  27
26  3  5  6  28
27  3  6  7  29
28  3  6  7  30
29  3  7  8  31
30  3  7  8  32
31  3  8  9  33
32  3  8  9  34
33  3  9  10  35
34  3  9  10  36
35  3  10  11  37
36  3  10  11  38
37  3  11  12  39
38  3  11  12  40
39  3  12  13  41
40  3  12  13  42
41  3  13  14  43
42  3  13  14  44
43  4  14  15  45
44  4  14  15  46
45  5  23  4  24
46  3  12  11  37
47  5  31  8  32
48  5  39  12  40
49  5  43  14  44
50  5  21  3  22
51  3  11  10  36
52  5  35  10  36
53  5  25  5  26
54  5  19  2  20
55  3  6  5  26
56  5  16  1  17
57  3  10  9  33
58  3  12  11  38
59  5  29  7  30
60  3  8  7  30
61  6  45  15  46
62  3  5  4  24
63  3  4  3  22
64  3  14  13  41
65  3  14  13  42
66  3  11  10  35
67  3  7  6  27
68  5  41  13  42
69  3  9  8  31
70  3  3  2  20
71  5  27  6  28
72  3  13  12  39
73  5  16  1  18
74  3  7  6  28
75  3  8  7  29
76  4  15  14  44
77  3  4  3  21
78  3  13  12  40
79  3  9  8  32
80  5  37  11  38
81  4  15  14  43
82  5  33  9  34
83  3  10  9  34
84  3  5  4  23
85  3  3  2  19
86  5  17  1  18
87  3  6  5  25

Dihedrals

1  1  4  3  2  1
2  1  5  4  3  2
3  1  6  5  4  3
4  1  7  6  5  4
5  1  8  7  6  5
6  1  9  8  7  6
7  1  10  9  8  7
8  1  11  10  9  8
9  1  12  11  10  9
10  1  13  12  11  10
11  1  14  13  12  11
12  2  15  14  13  12
13  3  16  1  2  3
14  4  45  15  14  13
15  3  23  4  3  21
16  3  35  10  11  12
17  3  35  10  9  8
18  3  28  6  7  8
19  3  42  13  12  39
20  3  41  13  12  40
21  3  21  3  2  20
22  3  22  3  2  19
23  3  38  11  10  35
24  3  25  5  4  3
25  3  39  12  11  10
26  3  31  8  7  6
27  3  37  11  10  35
28  3  41  13  12  39
29  3  44  14  13  41
30  3  38  11  10  9
31  3  39  12  13  14
32  3  20  2  1  18
33  3  25  5  4  23
34  3  42  13  12  40
35  3  43  14  13  41
36  3  38  11  10  36
37  3  40  12  11  38
38  3  25  5  6  7
39  3  28  6  5  4
40  3  37  11  10  9
41  3  30  7  6  5
42  3  29  7  8  9
43  3  33  9  8  7
44  3  29  7  6  28
45  3  30  7  6  27
46  3  34  9  8  32
47  3  32  8  7  30
48  3  33  9  8  32
49  3  34  9  8  31
50  4  46  15  14  13
51  3  44  14  13  12
52  3  27  6  5  25
53  3  23  4  5  6
54  3  26  5  4  24
55  5  45  15  14  44
56  3  35  10  9  33
57  3  41  13  12  11
58  3  34  9  10  11
59  3  37  11  12  13
60  3  40  12  11  10
61  3  39  12  11  37
62  3  32  8  9  10
63  3  26  5  4  23
64  3  25  5  4  24
65  3  24  4  3  22
66  3  26  5  4  3
67  3  43  14  13  12
68  3  38  11  12  13
69  3  36  10  11  12
70  3  31  8  7  29
71  3  43  14  13  42
72  3  30  7  8  9
73  3  27  6  5  4
74  3  23  4  3  2
75  3  32  8  7  6
76  3  42  13  12  11
77  3  24  4  3  21
78  3  23  4  3  22
79  3  19  2  1  16
80  3  35  10  9  34
81  3  36  10  9  33
82  3  21  3  2  19
83  3  20  2  1  17
84  3  19  2  1  18
85  3  22  3  2  20
86  3  37  11  10  36
87  3  21  3  4  5
88  3  34  9  8  7
89  3  31  8  9  10
90  3  24  4  3  2
91  3  36  10  9  8
92  3  24  4  5  6
93  3  33  9  10  11
94  3  39  12  11  38
95  3  40  12  11  37
96  3  36  10  9  34
97  3  44  14  13  42
98  6  41  13  14  15
99  3  27  6  7  8
100  3  20  2  3  4
101  3  17  1  2  3
102  3  40  12  13  14
103  3  28  6  5  26
104  3  31  8  7  30
105  3  32  8  7  29
106  3  28  6  5  25
107  3  27  6  5  26
108  3  19  2  3  4
109  3  22  3  2  1
110  3  29  7  6  5
111  3  18  1  2  3
112  3  19  2  1  17
113  3  20  2  1  16
114  6  42  13  14  15
115  3  21  3  2  1
116  3  22  3  4  5
117  5  46  15  14  44
118  3  33  9  8  31
119  5  46  15  14  43
120  3  26  5  6  7
121  3  29  7  6  27
122  3  30  7  6  28
123  5  45  15  14  43

Impropers

1  1  1  17  16  2
2  1  1  18  16  2
3  1  2  1  19  3
4  1  2  1  3  20
5  1  3  2  4  21
6  1  3  2  4  22
7  1  4  3  5  23
8  1  4  3  5  24
9  1  5  25  4  6
10  1  5  26  4  6
11  1  6  27  5  7
12  1  6  28  5  7
13  1  7  29  6  8
14  1  7  8  30  6
15  1  8  9  7  31
16  1  8  9  7  32
17  1  9  33  10  8
18  1  9  34  10  8
19  1  10  9  35  11
20  1  10  9  11  36
21  1  11  10  12  37
22  1  11  10  12  38
23  1  12  11  13  39
24  1  12  11  13  40
25  1  13  41  12  14
26  1  13  42  12  14
27  1  14  43  13  15
28  1  14  44  13  15
29  1  15  45  46  14
