LAMMPS data file Created by LigParGen - (Written by Leela S. Dodda)

      40 atoms
      39 bonds
      68 angles
      89 dihedrals
      21 impropers
 
      40 atom types
      39 bond types
      68 angle types
      89 dihedral types
      21 improper types
 
   -1.330570    48.669430 xlo xhi
   -6.515190    43.484810 ylo yhi
   -0.973430    49.026570 zlo zhi

Masses

       1     12.011  
       2     15.999  
       3     15.999  
       4     12.011  
       5     12.011  
       6     12.011  
       7     15.999  
       8      1.008  
       9      1.008  
      10     15.999  
      11      1.008  
      12     15.999  
      13      1.008  
      14     12.011  
      15     15.999  
      16     15.999  
      17      1.008  
      18     12.011  
      19     15.999  
      20     15.999  
      21      1.008  
      22     12.011  
      23     12.011  
      24      1.008  
      25      1.008  
      26     12.011  
      27      1.008  
      28      1.008  
      29     12.011  
      30      1.008  
      31      1.008  
      32     12.011  
      33      1.008  
      34      1.008  
      35     12.011  
      36      1.008  
      37      1.008  
      38      1.008  
      39      1.008  
      40      1.008  

Pair Coeffs 

       1      0.070  3.5500000 
       2      0.210  2.9600000 
       3      0.210  2.9600000 
       4      0.066  3.5000000 
       5      0.066  3.5000000 
       6      0.066  3.5000000 
       7      0.140  2.9000000 
       8      0.030  2.5000000 
       9      0.030  2.5000000 
      10      0.140  2.9000000 
      11      0.030  2.5000000 
      12      0.140  2.9000000 
      13      0.030  2.5000000 
      14      0.070  3.5500000 
      15      0.210  2.9600000 
      16      0.170  3.1200000 
      17      0.000  0.0000000 
      18      0.070  3.5500000 
      19      0.170  3.1200000 
      20      0.210  2.9600000 
      21      0.000  0.0000000 
      22      0.066  3.5000000 
      23      0.066  3.5000000 
      24      0.030  2.5000000 
      25      0.030  2.5000000 
      26      0.066  3.5000000 
      27      0.030  2.5000000 
      28      0.030  2.5000000 
      29      0.066  3.5000000 
      30      0.030  2.5000000 
      31      0.030  2.5000000 
      32      0.066  3.5000000 
      33      0.030  2.5000000 
      34      0.030  2.5000000 
      35      0.066  3.5000000 
      36      0.030  2.5000000 
      37      0.030  2.5000000 
      38      0.030  2.5000000 
      39      0.030  2.5000000 
      40      0.030  2.5000000 

Bond Coeffs 

       1   656.0000     1.2500 
       2   656.0000     1.2500 
       3   317.0000     1.5220 
       4   268.0000     1.5290 
       5   268.0000     1.5290 
       6   320.0000     1.4100 
       7   340.0000     1.0900 
       8   340.0000     1.0900 
       9   320.0000     1.4100 
      10   340.0000     1.0900 
      11   320.0000     1.4100 
      12   340.0000     1.0900 
      13   214.0000     1.3270 
      14   570.0000     1.2290 
      15   450.0000     1.3640 
      16   553.0000     0.9450 
      17   214.0000     1.3270 
      18   450.0000     1.3640 
      19   570.0000     1.2290 
      20   553.0000     0.9450 
      21   320.0000     1.4100 
      22   268.0000     1.5290 
      23   340.0000     1.0900 
      24   340.0000     1.0900 
      25   268.0000     1.5290 
      26   340.0000     1.0900 
      27   340.0000     1.0900 
      28   268.0000     1.5290 
      29   340.0000     1.0900 
      30   340.0000     1.0900 
      31   268.0000     1.5290 
      32   340.0000     1.0900 
      33   340.0000     1.0900 
      34   268.0000     1.5290 
      35   340.0000     1.0900 
      36   340.0000     1.0900 
      37   340.0000     1.0900 
      38   340.0000     1.0900 
      39   340.0000     1.0900 

Angle Coeffs 

       1     80.000    126.000
       2     70.000    117.000
       3     63.000    111.100
       4     58.350    112.700
       5     50.000    109.500
       6     37.500    110.700
       7     37.500    110.700
       8     50.000    109.500
       9     37.500    110.700
      10     50.000    109.500
      11     35.000    109.500
      12     83.000    116.900
      13     83.000    123.400
      14     69.900    118.180
      15     35.000    113.000
      16     83.000    116.900
      17     69.900    118.180
      18     83.000    123.400
      19     35.000    113.000
      20     60.000    109.500
      21     50.000    109.500
      22     35.000    109.500
      23     35.000    109.500
      24     58.350    112.700
      25     37.500    110.700
      26     37.500    110.700
      27     58.350    112.700
      28     37.500    110.700
      29     37.500    110.700
      30     58.350    112.700
      31     37.500    110.700
      32     37.500    110.700
      33     58.350    112.700
      34     37.500    110.700
      35     37.500    110.700
      36     37.500    110.700
      37     37.500    110.700
      38     37.500    110.700
      39     37.500    110.700
      40     50.000    109.500
      41     33.000    107.800
      42     33.000    107.800
      43     33.000    107.800
      44     35.000    109.500
      45     33.000    107.800
      46     50.000    109.500
      47     80.000    121.000
      48     70.000    117.000
      49     37.500    110.700
      50     33.000    107.800
      51     37.500    110.700
      52     37.500    110.700
      53     33.000    107.800
      54     37.500    110.700
      55     80.000    121.000
      56     37.500    110.700
      57     33.000    107.800
      58     35.000    109.500
      59     35.000    109.500
      60     37.500    110.700
      61     33.000    107.800
      62     37.500    110.700
      63     37.500    110.700
      64     37.500    110.700
      65     33.000    107.800
      66     35.000    109.500
      67     37.500    110.700
      68     37.500    110.700

Dihedral Coeffs  

       1      0.000      0.000      0.000      0.000 
       2     -2.060     -0.313      0.315      0.000 
       3      1.711     -0.500      0.663      0.000 
       4     -1.220     -0.126      0.422      0.000 
       5      0.000      5.124      0.000      0.000 
       6      0.000      5.500      0.000      0.000 
       7     -1.220     -0.126      0.422      0.000 
       8      4.669      5.124      0.000      0.000 
       9      0.000      5.500      0.000      0.000 
      10      0.650     -0.250      0.670      0.000 
      11      0.650     -0.250      0.670      0.000 
      12      1.711     -0.500      0.663      0.000 
      13      1.300     -0.200      0.200      0.000 
      14      1.300     -0.200      0.200      0.000 
      15      1.300     -0.200      0.200      0.000 
      16      0.000      0.000      0.300      0.000 
      17      0.000      0.000      0.760      0.000 
      18      0.000      0.000      0.000      0.000 
      19      0.000      0.000      0.300      0.000 
      20     -1.220     -0.126      0.422      0.000 
      21      0.000      0.000      0.300      0.000 
      22      0.000      0.000     -0.100      0.000 
      23      0.000      0.000      0.300      0.000 
      24      0.000      0.000      0.300      0.000 
      25      0.000      0.000      0.300      0.000 
      26      0.000      0.000      0.468      0.000 
      27      0.000      0.000      0.468      0.000 
      28      0.000      0.000      0.300      0.000 
      29      0.000      0.000      0.300      0.000 
      30      0.000      0.000      0.300      0.000 
      31      0.000      5.124      0.000      0.000 
      32      0.000      0.000      0.300      0.000 
      33      0.000      0.000      0.300      0.000 
      34      0.000      0.000      0.300      0.000 
      35      0.000      0.000      0.300      0.000 
      36     -0.550      0.000      0.000      0.000 
      37      0.000      0.000      0.300      0.000 
      38      0.000      0.000      0.300      0.000 
      39      0.000      0.000      0.300      0.000 
      40      0.000      0.000      0.468      0.000 
      41      0.000      0.000      0.300      0.000 
      42      0.000      0.820      0.000      0.000 
      43      0.000      0.000      0.300      0.000 
      44      0.000      0.000      0.760      0.000 
      45      1.711     -0.500      0.663      0.000 
      46      0.000      0.000      0.760      0.000 
      47      0.000      0.000      0.760      0.000 
      48     -1.220     -0.126      0.422      0.000 
      49     -0.550      0.000      0.000      0.000 
      50      0.000      0.000      0.300      0.000 
      51      0.000      0.000      0.300      0.000 
      52      0.000      0.000      0.300      0.000 
      53      0.000      0.000      0.300      0.000 
      54      0.000      0.000      0.300      0.000 
      55      0.000      0.000      0.468      0.000 
      56      0.000      0.000      0.300      0.000 
      57      0.000      0.000      0.300      0.000 
      58      0.000      5.500      0.000      0.000 
      59      0.000      0.000      0.300      0.000 
      60      0.000      0.000      0.198      0.000 
      61      0.000      0.000      0.300      0.000 
      62      0.000      0.000      0.300      0.000 
      63      0.000      0.000      0.300      0.000 
      64      0.000      0.000      0.468      0.000 
      65      0.000      0.000      0.300      0.000 
      66      0.000      0.000      0.300      0.000 
      67      0.000      0.000      0.300      0.000 
      68      0.000      0.000      0.000      0.000 
      69      0.000      0.820      0.000      0.000 
      70      0.000      0.000      0.468      0.000 
      71      0.000      0.000      0.300      0.000 
      72      0.000      0.000      0.300      0.000 
      73      0.000      0.000      0.300      0.000 
      74      0.000      0.000      0.300      0.000 
      75      0.000      0.000      0.300      0.000 
      76      0.000      0.000      0.300      0.000 
      77      0.000      0.000      0.300      0.000 
      78      0.000      5.500      0.000      0.000 
      79      0.000      0.000      0.468      0.000 
      80      0.000      0.000      0.300      0.000 
      81      0.000      0.000      0.198      0.000 
      82      0.000      0.000      0.300      0.000 
      83      0.000      0.000      0.300      0.000 
      84      0.000      0.000      0.300      0.000 
      85      0.000      0.000      0.300      0.000 
      86      0.000      0.000      0.300      0.000 
      87     -6.180      0.000      0.000      0.000 
      88      0.000      0.000      0.000      0.000 
      89      4.669      5.124      0.000      0.000 

Improper Coeffs 

       1     10.500      -1       2 
       2      0.000      -1       2 
       3      0.000      -1       2 
       4      0.000      -1       2 
       5      0.000      -1       2 
       6      0.000      -1       2 
       7      0.000      -1       2 
       8     10.500      -1       2 
       9     10.500      -1       2 
      10      0.000      -1       2 
      11      0.000      -1       2 
      12      0.000      -1       2 
      13      0.000      -1       2 
      14      0.000      -1       2 
      15      0.000      -1       2 
      16      0.000      -1       2 
      17      0.000      -1       2 
      18      0.000      -1       2 
      19      0.000      -1       2 
      20      0.000      -1       2 
      21      0.000      -1       2 

Atoms 

     1      1      1 0.42310000    1.000  1.00000  0.00000
     2      1      2 -0.57530000   -0.270  1.00000  0.00000
     3      1      3 -0.57530000    1.799  1.00000 -0.97343
     4      1      4 -0.01010000    1.630  0.99823  1.39969
     5      1      5 0.03150000    1.564 -0.42635  1.98169
     6      1      6 -0.02740000    2.178 -0.53046  3.39442
     7      1      7 -0.30500000    1.265 -0.14915  4.42422
     8      1      8 0.09750000    3.040  0.14189  3.47708
     9      1      9 0.09750000    2.554 -1.54222  3.58826
    10      1     10 -0.26890000    2.166 -1.42020  1.10940
    11      1     11 0.14760000    0.512 -0.72146  2.04919
    12      1     12 -0.36010000    1.030  2.03157  2.25650
    13      1     13 0.14350000    2.673  1.30955  1.28513
    14      1     14 0.54840000   -0.201  2.01878  2.82993
    15      1     15 -0.42560000   -0.466  2.67748  3.82614
    16      1     16 -0.56150000   -1.113  1.23300  2.22846
    17      1     17 0.45550000   -0.876  1.09874  1.26513
    18      1     18 0.51700000    3.480 -1.33035  0.83519
    19      1     19 -0.44310000    3.815 -2.27550 -0.05865
    20      1     20 -0.46330000    4.312 -0.58989  1.32527
    21      1     21 0.39830000    4.741 -2.04585 -0.26274
    22      1     22 -0.00030000    0.360 -1.18575  4.80371
    23      1     23 -0.18850000    0.936 -1.95167  5.99208
    24      1     24 0.09290000    0.140 -1.85562  3.96580
    25      1     25 0.09290000   -0.579 -0.70370  5.09929
    26      1     26 -0.15400000    0.009 -3.07843  6.44315
    27      1     27 0.08310000    1.111 -1.24817  6.81667
    28      1     28 0.08310000    1.919 -2.35959  5.73182
    29      1     29 -0.15550000    0.569 -3.79392  7.67449
    30      1     30 0.07870000   -0.117 -3.79649  5.62375
    31      1     31 0.07870000   -0.983 -2.67210  6.67662
    32      1     32 -0.15770000   -0.320 -4.96415  8.09319
    33      1     33 0.07740000    0.654 -3.07958  8.50261
    34      1     34 0.07740000    1.580 -4.16237  7.45759
    35      1     35 -0.20840000    0.237 -5.67275  9.31744
    36      1     36 0.07700000   -0.402 -5.68112  7.26860
    37      1     37 0.07700000   -1.331 -4.60361  8.31530
    38      1     38 0.06730000    1.242 -6.06065  9.12261
    39      1     39 0.06730000   -0.405 -6.51519  9.59279
    40      1     40 0.06730000    0.292 -4.99112 10.17273

Bonds 

     1      1      2      1
     2      2      3      1
     3      3      4      1
     4      4      5      4
     5      5      6      5
     6      6      7      6
     7      7      8      6
     8      8      9      6
     9      9     10      5
    10     10     11      5
    11     11     12      4
    12     12     13      4
    13     13     14     12
    14     14     15     14
    15     15     16     14
    16     16     17     16
    17     17     18     10
    18     18     19     18
    19     19     20     18
    20     20     21     19
    21     21     22      7
    22     22     23     22
    23     23     24     22
    24     24     25     22
    25     25     26     23
    26     26     27     23
    27     27     28     23
    28     28     29     26
    29     29     30     26
    30     30     31     26
    31     31     32     29
    32     32     33     29
    33     33     34     29
    34     34     35     32
    35     35     36     32
    36     36     37     32
    37     37     38     35
    38     38     39     35
    39     39     40     35

Angles 

     1      1      2      1      3
     2      2      2      1      4
     3      3      1      4      5
     4      4      4      5      6
     5      5      5      6      7
     6      6      5      6      8
     7      7      5      6      9
     8      8      4      5     10
     9      9      4      5     11
    10     10      1      4     12
    11     11      1      4     13
    12     12      4     12     14
    13     13     12     14     15
    14     14     12     14     16
    15     15     14     16     17
    16     16      5     10     18
    17     17     10     18     19
    18     18     10     18     20
    19     19     18     19     21
    20     20      6      7     22
    21     21      7     22     23
    22     22      7     22     24
    23     23      7     22     25
    24     24     22     23     26
    25     25     22     23     27
    26     26     22     23     28
    27     27     23     26     29
    28     28     23     26     30
    29     29     23     26     31
    30     30     26     29     32
    31     31     26     29     33
    32     32     26     29     34
    33     33     29     32     35
    34     34     29     32     36
    35     35     29     32     37
    36     36     32     35     38
    37     37     32     35     39
    38     38     32     35     40
    39     39     26     23     27
    40     40      5      4     12
    41     41     24     22     25
    42     42     39     35     40
    43     43     30     26     31
    44     44      7      6      9
    45     45     38     35     39
    46     46      6      5     10
    47     47     19     18     20
    48     48      3      1      4
    49     49      6      5     11
    50     50     36     32     37
    51     51     32     29     33
    52     52      5      4     13
    53     53     27     23     28
    54     54     23     22     25
    55     55     15     14     16
    56     56     35     32     37
    57     57     38     35     40
    58     58      7      6      8
    59     59     12      4     13
    60     60     29     26     30
    61     61      8      6      9
    62     62     23     22     24
    63     63     32     29     34
    64     64     29     26     31
    65     65     33     29     34
    66     66     10      5     11
    67     67     35     32     36
    68     68     26     23     28

Dihedrals

     1      1      5      4      1      2 
     2      2      6      5      4      1 
     3      3      7      6      5      4 
     4      4     14     12      4      1 
     5      5     15     14     12      4 
     6      6     17     16     14     12 
     7      7     18     10      5      4 
     8      8     19     18     10      5 
     9      9     21     19     18     10 
    10     10     22      7      6      5 
    11     11     23     22      7      6 
    12     12     26     23     22      7 
    13     13     29     26     23     22 
    14     14     32     29     26     23 
    15     15     35     32     29     26 
    16     16     38     35     32     29 
    17     17     22      7      6      9 
    18     18      5      4      1      3 
    19     19     38     35     32     36 
    20     20     14     12      4      5 
    21     21      8      6      5      4 
    22     22     11      5      4      1 
    23     23      9      6      5      4 
    24     24     35     32     29     33 
    25     25     39     35     32     29 
    26     26     12      4      5     11 
    27     27     13      4      5     10 
    28     28     13      4      5      6 
    29     29     27     23     22     24 
    30     30     26     23     22     25 
    31     31     20     18     10      5 
    32     32     34     29     26     23 
    33     33     33     29     26     30 
    34     34     32     29     26     31 
    35     35     36     32     29     26 
    36     36     10      5      6      7 
    37     37     29     26     23     28 
    38     38     30     26     23     27 
    39     39     33     29     26     23 
    40     40     28     23     22      7 
    41     41     33     29     26     31 
    42     42     12      4      1      2 
    43     43     34     29     26     30 
    44     44     22      7      6      8 
    45     45     12      4      5      6 
    46     46     25     22      7      6 
    47     47     24     22      7      6 
    48     48     18     10      5      6 
    49     49     12      4      5     10 
    50     50     37     32     29     26 
    51     51     28     23     22     25 
    52     52     37     32     29     34 
    53     53     31     26     23     28 
    54     54     39     35     32     37 
    55     55     11      5      6      7 
    56     56     11      5      6      9 
    57     57     31     26     23     22 
    58     58     21     19     18     20 
    59     59     30     26     23     22 
    60     60     14     12      4     13 
    61     61     34     29     26     31 
    62     62     40     35     32     36 
    63     63     40     35     32     29 
    64     64     27     23     22      7 
    65     65     26     23     22     24 
    66     66     32     29     26     30 
    67     67     13      4      5     11 
    68     68     13      4      1      2 
    69     69     12      4      1      3 
    70     70     10      5      6      9 
    71     71     11      5      6      8 
    72     72     30     26     23     28 
    73     73     28     23     22     24 
    74     74     27     23     22     25 
    75     75     31     26     23     27 
    76     76     35     32     29     34 
    77     77     36     32     29     33 
    78     78     17     16     14     15 
    79     79     10      5      6      8 
    80     80     29     26     23     27 
    81     81     18     10      5     11 
    82     82     36     32     29     34 
    83     83     37     32     29     33 
    84     84     40     35     32     37 
    85     85     39     35     32     36 
    86     86     38     35     32     37 
    87     87     10      5      4      1 
    88     88     13      4      1      3 
    89     89     16     14     12      4 

Impropers

     1      1      1      2      3      4 
     2      2      6      5      7      8 
     3      3      6      9      5      7 
     4      4      5     10      4      6 
     5      5      5     11      4      6 
     6      6      4      1     12      5 
     7      7      4      1      5     13 
     8      8     14     12     15     16 
     9      9     18     19     20     10 
    10     10     22     23      7     24 
    11     11     22     25     23      7 
    12     12     23     26     27     22 
    13     13     23     26     28     22 
    14     14     26     29     30     23 
    15     15     26     29     23     31 
    16     16     29     33     26     32 
    17     17     29     34     32     26 
    18     18     32     35     36     29 
    19     19     32     29     35     37 
    20     20     35     38     39     32 
    21     21     35     32     38     40 

