#GLC6_anion

40 atoms
7 atom types

39 bonds
9 bond types

68 angles
14 angle types

89 dihedrals
17 dihedral types

21 impropers
2 improper types

-1.33057  48.66943  xlo xhi
-6.51519  43.48481  ylo yhi
-0.97343  49.02657  zlo zhi

Masses

1  12.011
2  15.999
3  12.011
4  15.999
5  1.008
6  15.999
7  1.008

Pair Coeffs

1  0.07  3.55
2  0.21  2.96
3  0.066  3.5
4  0.14  2.9
5  0.03  2.5
6  0.17  3.12
7  0.0  0.0

Bond Coeffs

1  656.0  1.25
2  317.0  1.522
3  268.0  1.529
4  320.0  1.41
5  340.0  1.09
6  214.0  1.327
7  570.0  1.229
8  450.0  1.364
9  553.0  0.945

Angle Coeffs

1  80.0  126.0
2  70.0  117.0
3  63.0  111.1
4  58.35  112.7
5  50.0  109.5
6  37.5  110.7
7  35.0  109.5
8  83.0  116.9
9  83.0  123.4
10  69.9  118.18
11  35.0  113.0
12  60.0  109.5
13  33.0  107.8
14  80.0  121.0

Dihedral Coeffs

1  0.0  0.0  0.0  0.0
2  -2.06  -0.313  0.315  0.0
3  1.711  -0.5  0.663  0.0
4  -1.22  -0.126  0.422  0.0
5  0.0  5.124  0.0  0.0
6  0.0  5.5  0.0  0.0
7  4.669  5.124  0.0  0.0
8  0.65  -0.25  0.67  0.0
9  1.3  -0.2  0.2  0.0
10  0.0  0.0  0.3  0.0
11  0.0  0.0  0.76  0.0
12  0.0  0.0  -0.1  0.0
13  0.0  0.0  0.468  0.0
14  -0.55  0.0  0.0  0.0
15  0.0  0.82  0.0  0.0
16  0.0  0.0  0.198  0.0
17  -6.18  0.0  0.0  0.0

Improper Coeffs

1  10.5  -1.0  2.0
2  0.0  -1.0  2.0

Atoms # full

1  1  1   0.4231   1   1   0
2  1  2  -0.5753  -0.27   1   0
3  1  2  -0.5753   1.799   1  -0.97343
4  1  3  -0.0101   1.63   0.99823   1.39969
5  1  3   0.0315   1.564  -0.42635   1.98169
6  1  3  -0.0274   2.178  -0.53046   3.39442
7  1  4  -0.305   1.265  -0.14915   4.42422
8  1  5   0.0975   3.04   0.14189   3.47708
9  1  5   0.0975   2.554  -1.54222   3.58826
10  1  4  -0.2689   2.166  -1.4202   1.1094
11  1  5   0.1476   0.512  -0.72146   2.04919
12  1  4  -0.3601   1.03   2.03157   2.2565
13  1  5   0.1435   2.673   1.30955   1.28513
14  1  1   0.5484  -0.201   2.01878   2.82993
15  1  2  -0.4256  -0.466   2.67748   3.82614
16  1  6  -0.5615  -1.113   1.233   2.22846
17  1  7   0.4555  -0.876   1.09874   1.26513
18  1  1   0.517   3.48  -1.33035   0.83519
19  1  6  -0.4431   3.815  -2.2755  -0.05865
20  1  2  -0.4633   4.312  -0.58989   1.32527
21  1  7   0.3983   4.741  -2.04585  -0.26274
22  1  3  -0.0003   0.36  -1.18575   4.80371
23  1  3  -0.1885   0.936  -1.95167   5.99208
24  1  5   0.0929   0.14  -1.85562   3.9658
25  1  5   0.0929  -0.579  -0.7037   5.09929
26  1  3  -0.154   0.009  -3.07843   6.44315
27  1  5   0.0831   1.111  -1.24817   6.81667
28  1  5   0.0831   1.919  -2.35959   5.73182
29  1  3  -0.1555   0.569  -3.79392   7.67449
30  1  5   0.0787  -0.117  -3.79649   5.62375
31  1  5   0.0787  -0.983  -2.6721   6.67662
32  1  3  -0.1577  -0.32  -4.96415   8.09319
33  1  5   0.0774   0.654  -3.07958   8.50261
34  1  5   0.0774   1.58  -4.16237   7.45759
35  1  3  -0.2084   0.237  -5.67275   9.31744
36  1  5   0.077  -0.402  -5.68112   7.2686
37  1  5   0.077  -1.331  -4.60361   8.3153
38  1  5   0.0673   1.242  -6.06065   9.12261
39  1  5   0.0673  -0.405  -6.51519   9.59279
40  1  5   0.0673   0.292  -4.99112   10.17273

Bonds

1  1  2  1
2  1  3  1
3  2  4  1
4  3  5  4
5  3  6  5
6  4  7  6
7  5  8  6
8  5  9  6
9  4  10  5
10  5  11  5
11  4  12  4
12  5  13  4
13  6  14  12
14  7  15  14
15  8  16  14
16  9  17  16
17  6  18  10
18  8  19  18
19  7  20  18
20  9  21  19
21  4  22  7
22  3  23  22
23  5  24  22
24  5  25  22
25  3  26  23
26  5  27  23
27  5  28  23
28  3  29  26
29  5  30  26
30  5  31  26
31  3  32  29
32  5  33  29
33  5  34  29
34  3  35  32
35  5  36  32
36  5  37  32
37  5  38  35
38  5  39  35
39  5  40  35

Angles

1  1  2  1  3
2  2  2  1  4
3  3  1  4  5
4  4  4  5  6
5  5  5  6  7
6  6  5  6  8
7  6  5  6  9
8  5  4  5  10
9  6  4  5  11
10  5  1  4  12
11  7  1  4  13
12  8  4  12  14
13  9  12  14  15
14  10  12  14  16
15  11  14  16  17
16  8  5  10  18
17  10  10  18  19
18  9  10  18  20
19  11  18  19  21
20  12  6  7  22
21  5  7  22  23
22  7  7  22  24
23  7  7  22  25
24  4  22  23  26
25  6  22  23  27
26  6  22  23  28
27  4  23  26  29
28  6  23  26  30
29  6  23  26  31
30  4  26  29  32
31  6  26  29  33
32  6  26  29  34
33  4  29  32  35
34  6  29  32  36
35  6  29  32  37
36  6  32  35  38
37  6  32  35  39
38  6  32  35  40
39  6  26  23  27
40  5  5  4  12
41  13  24  22  25
42  13  39  35  40
43  13  30  26  31
44  7  7  6  9
45  13  38  35  39
46  5  6  5  10
47  14  19  18  20
48  2  3  1  4
49  6  6  5  11
50  13  36  32  37
51  6  32  29  33
52  6  5  4  13
53  13  27  23  28
54  6  23  22  25
55  14  15  14  16
56  6  35  32  37
57  13  38  35  40
58  7  7  6  8
59  7  12  4  13
60  6  29  26  30
61  13  8  6  9
62  6  23  22  24
63  6  32  29  34
64  6  29  26  31
65  13  33  29  34
66  7  10  5  11
67  6  35  32  36
68  6  26  23  28

Dihedrals

1  1  5  4  1  2
2  2  6  5  4  1
3  3  7  6  5  4
4  4  14  12  4  1
5  5  15  14  12  4
6  6  17  16  14  12
7  4  18  10  5  4
8  7  19  18  10  5
9  6  21  19  18  10
10  8  22  7  6  5
11  8  23  22  7  6
12  3  26  23  22  7
13  9  29  26  23  22
14  9  32  29  26  23
15  9  35  32  29  26
16  10  38  35  32  29
17  11  22  7  6  9
18  1  5  4  1  3
19  10  38  35  32  36
20  4  14  12  4  5
21  10  8  6  5  4
22  12  11  5  4  1
23  10  9  6  5  4
24  10  35  32  29  33
25  10  39  35  32  29
26  13  12  4  5  11
27  13  13  4  5  10
28  10  13  4  5  6
29  10  27  23  22  24
30  10  26  23  22  25
31  5  20  18  10  5
32  10  34  29  26  23
33  10  33  29  26  30
34  10  32  29  26  31
35  10  36  32  29  26
36  14  10  5  6  7
37  10  29  26  23  28
38  10  30  26  23  27
39  10  33  29  26  23
40  13  28  23  22  7
41  10  33  29  26  31
42  15  12  4  1  2
43  10  34  29  26  30
44  11  22  7  6  8
45  3  12  4  5  6
46  11  25  22  7  6
47  11  24  22  7  6
48  4  18  10  5  6
49  14  12  4  5  10
50  10  37  32  29  26
51  10  28  23  22  25
52  10  37  32  29  34
53  10  31  26  23  28
54  10  39  35  32  37
55  13  11  5  6  7
56  10  11  5  6  9
57  10  31  26  23  22
58  6  21  19  18  20
59  10  30  26  23  22
60  16  14  12  4  13
61  10  34  29  26  31
62  10  40  35  32  36
63  10  40  35  32  29
64  13  27  23  22  7
65  10  26  23  22  24
66  10  32  29  26  30
67  10  13  4  5  11
68  1  13  4  1  2
69  15  12  4  1  3
70  13  10  5  6  9
71  10  11  5  6  8
72  10  30  26  23  28
73  10  28  23  22  24
74  10  27  23  22  25
75  10  31  26  23  27
76  10  35  32  29  34
77  10  36  32  29  33
78  6  17  16  14  15
79  13  10  5  6  8
80  10  29  26  23  27
81  16  18  10  5  11
82  10  36  32  29  34
83  10  37  32  29  33
84  10  40  35  32  37
85  10  39  35  32  36
86  10  38  35  32  37
87  17  10  5  4  1
88  1  13  4  1  3
89  7  16  14  12  4

Impropers

1  1  1  2  3  4
2  2  6  5  7  8
3  2  6  9  5  7
4  2  5  10  4  6
5  2  5  11  4  6
6  2  4  1  12  5
7  2  4  1  5  13
8  1  14  12  15  16
9  1  18  19  20  10
10  2  22  23  7  24
11  2  22  25  23  7
12  2  23  26  27  22
13  2  23  26  28  22
14  2  26  29  30  23
15  2  26  29  23  31
16  2  29  33  26  32
17  2  29  34  32  26
18  2  32  35  36  29
19  2  32  29  35  37
20  2  35  38  39  32
21  2  35  32  38  40
