#C10_amine

34 atoms
4 atom types

33 bonds
4 bond types

63 angles
6 angle types

87 dihedrals
6 dihedral types

21 impropers
1 improper types

-10.34001  39.65999  xlo xhi
0  50.11166  ylo yhi
-1.02699  48.97301  zlo zhi

Masses

1  12.011
2  14.007
3  1.008
4  1.008

Pair Coeffs

1  0.066  3.5
2  0.17  3.3
3  0.03  2.5
4  0.0  0.0

Bond Coeffs

1  268.0  1.529
2  382.0  1.448
3  340.0  1.09
4  434.0  1.01

Angle Coeffs

1  58.35  112.7
2  56.2  109.47
3  37.5  110.7
4  35.0  109.5
5  33.0  107.8
6  43.6  106.4

Dihedral Coeffs

1  1.3  -0.2  0.2  0.0
2  2.392  -0.674  0.55  0.0
3  0.0  0.0  0.3  0.0
4  -0.19  -0.417  0.418  0.0
5  0.0  0.0  0.4  0.0
6  -1.013  -0.709  0.473  0.0

Improper Coeffs

1  0.0  -1.0  2.0

Atoms # full

1  1  1  -0.2388   1   1   0
2  1  1  -0.1793  -0.52   1   0
3  1  1  -0.1783  -1.075   1   1.42335
4  1  1  -0.179  -2.604   1.0018   1.42499
5  1  1  -0.1789  -3.153   1.00359   2.85182
6  1  1  -0.1788  -4.682   1.0036   2.85838
7  1  1  -0.1781  -5.227   1.0072   4.28701
8  1  1  -0.1791  -6.756   1.00541   4.29686
9  1  1  -0.1811  -7.299   1.00721   5.72676
10  1  1   0.0888  -8.826   1.00362   5.73496
11  1  2  -0.9273  -9.322   1.00713   7.10587
12  1  3   0.0808   1.378   1.0013  -1.02699
13  1  3   0.0808   1.391   0.11166   0.50631
14  1  3   0.0808   1.391   1.8877   0.50757
15  1  3   0.0882  -0.88   0.11696  -0.54081
16  1  3   0.0882  -0.88   1.88303  -0.5408
17  1  3   0.0895  -0.706   1.88223   1.96078
18  1  3   0.0895  -0.708   0.11645   1.95995
19  1  3   0.0891  -2.974   0.11874   0.88953
20  1  3   0.0891  -2.971   1.8849   0.88809
21  1  3   0.0897  -2.784   1.88782   3.38578
22  1  3   0.0897  -2.783   0.12148   3.3883
23  1  3   0.0893  -5.052   0.11915   2.32561
24  1  3   0.0893  -5.052   1.88538   2.32113
25  1  3   0.0907  -4.857   1.89263   4.81819
26  1  3   0.0907  -4.855   0.12578   4.82346
27  1  3   0.0889  -7.125   0.12065   3.76397
28  1  3   0.0889  -7.127   1.88751   3.76092
29  1  3   0.0984  -6.926   1.89261   6.25742
30  1  3   0.0984  -6.921   0.12619   6.26065
31  1  3   0.0775  -9.205   0.11791   5.21333
32  1  3   0.0775  -9.207   1.88871   5.21416
33  1  4   0.3323  -8.993   0.17412   7.59181
34  1  4   0.3323  -10.34   0.94806   7.09694

Bonds

1  1  2  1
2  1  3  2
3  1  4  3
4  1  5  4
5  1  6  5
6  1  7  6
7  1  8  7
8  1  9  8
9  1  10  9
10  2  11  10
11  3  12  1
12  3  13  1
13  3  14  1
14  3  15  2
15  3  16  2
16  3  17  3
17  3  18  3
18  3  19  4
19  3  20  4
20  3  21  5
21  3  22  5
22  3  23  6
23  3  24  6
24  3  25  7
25  3  26  7
26  3  27  8
27  3  28  8
28  3  29  9
29  3  30  9
30  3  31  10
31  3  32  10
32  4  33  11
33  4  34  11

Angles

1  1  1  2  3
2  1  2  3  4
3  1  3  4  5
4  1  4  5  6
5  1  5  6  7
6  1  6  7  8
7  1  7  8  9
8  1  8  9  10
9  2  9  10  11
10  3  2  1  12
11  3  2  1  13
12  3  2  1  14
13  3  1  2  15
14  3  1  2  16
15  3  2  3  17
16  3  2  3  18
17  3  3  4  19
18  3  3  4  20
19  3  4  5  21
20  3  4  5  22
21  3  5  6  23
22  3  5  6  24
23  3  6  7  25
24  3  6  7  26
25  3  7  8  27
26  3  7  8  28
27  3  8  9  29
28  3  8  9  30
29  3  9  10  31
30  3  9  10  32
31  4  10  11  33
32  4  10  11  34
33  3  9  8  28
34  3  10  9  30
35  5  29  9  30
36  3  10  9  29
37  5  19  4  20
38  5  21  5  22
39  3  3  2  15
40  5  13  1  14
41  5  23  6  24
42  3  6  5  22
43  3  7  6  23
44  4  11  10  32
45  3  8  7  26
46  6  33  11  34
47  5  12  1  14
48  3  3  2  16
49  5  27  8  28
50  3  4  3  18
51  3  7  6  24
52  3  8  7  25
53  5  12  1  13
54  3  5  4  19
55  5  25  7  26
56  4  11  10  31
57  3  6  5  21
58  3  5  4  20
59  5  31  10  32
60  5  15  2  16
61  3  4  3  17
62  5  17  3  18
63  3  9  8  27

Dihedrals

1  1  4  3  2  1
2  1  5  4  3  2
3  1  6  5  4  3
4  1  7  6  5  4
5  1  8  7  6  5
6  1  9  8  7  6
7  1  10  9  8  7
8  2  11  10  9  8
9  3  12  1  2  3
10  4  33  11  10  9
11  3  23  6  7  8
12  3  21  5  4  3
13  3  28  8  9  10
14  3  23  6  5  4
15  3  17  3  2  16
16  3  18  3  2  15
17  3  24  6  5  22
18  3  19  4  3  2
19  3  20  4  3  18
20  3  16  2  1  13
21  3  31  10  9  29
22  3  13  1  2  3
23  3  25  7  6  23
24  3  29  9  8  7
25  3  32  10  9  30
26  3  27  8  7  26
27  3  28  8  7  25
28  3  16  2  3  4
29  5  34  11  10  32
30  3  15  2  1  12
31  3  23  6  5  21
32  3  22  5  4  19
33  3  28  8  7  26
34  3  32  10  9  8
35  3  17  3  2  15
36  3  27  8  7  6
37  3  30  9  8  27
38  3  29  9  8  28
39  3  26  7  6  24
40  3  19  4  5  6
41  3  22  5  4  3
42  3  30  9  8  7
43  3  27  8  9  10
44  6  29  9  10  11
45  3  16  2  1  14
46  3  21  5  6  7
47  3  24  6  7  8
48  3  15  2  3  4
49  3  18  3  2  1
50  3  25  7  6  5
51  3  20  4  5  6
52  3  18  3  4  5
53  3  30  9  8  28
54  3  26  7  6  23
55  3  25  7  6  24
56  3  24  6  5  4
57  3  20  4  3  17
58  3  19  4  3  18
59  3  19  4  3  17
60  6  30  9  10  11
61  3  22  5  6  7
62  4  34  11  10  9
63  3  17  3  4  5
64  3  20  4  3  2
65  5  33  11  10  31
66  3  29  9  8  27
67  3  15  2  1  13
68  3  16  2  1  12
69  3  18  3  2  16
70  3  21  5  4  19
71  3  22  5  4  20
72  3  24  6  5  21
73  3  23  6  5  22
74  3  26  7  8  9
75  3  31  10  9  8
76  3  15  2  1  14
77  3  27  8  7  25
78  3  17  3  2  1
79  3  26  7  6  5
80  5  34  11  10  31
81  5  33  11  10  32
82  3  14  1  2  3
83  3  21  5  4  20
84  3  32  10  9  29
85  3  31  10  9  30
86  3  28  8  7  6
87  3  25  7  8  9

Impropers

1  1  1  2  12  13
2  1  1  2  12  14
3  1  2  1  3  15
4  1  2  1  3  16
5  1  3  17  2  4
6  1  3  18  4  2
7  1  4  19  5  3
8  1  4  3  20  5
9  1  5  4  21  6
10  1  5  4  22  6
11  1  6  7  5  23
12  1  6  5  7  24
13  1  7  25  6  8
14  1  7  26  6  8
15  1  8  9  27  7
16  1  8  9  28  7
17  1  9  10  29  8
18  1  9  10  30  8
19  1  10  9  11  31
20  1  10  9  11  32
21  1  11  33  34  10
