LAMMPS data file Created by LigParGen - (Written by Leela S. Dodda)

      34 atoms
      33 bonds
      63 angles
      87 dihedrals
      21 impropers
 
      34 atom types
      33 bond types
      63 angle types
      87 dihedral types
      21 improper types
 
  -10.340010    39.659990 xlo xhi
    0.111660    50.111660 ylo yhi
   -1.026990    48.973010 zlo zhi

Masses

       1     12.011  
       2     12.011  
       3     12.011  
       4     12.011  
       5     12.011  
       6     12.011  
       7     12.011  
       8     12.011  
       9     12.011  
      10     12.011  
      11     14.007  
      12      1.008  
      13      1.008  
      14      1.008  
      15      1.008  
      16      1.008  
      17      1.008  
      18      1.008  
      19      1.008  
      20      1.008  
      21      1.008  
      22      1.008  
      23      1.008  
      24      1.008  
      25      1.008  
      26      1.008  
      27      1.008  
      28      1.008  
      29      1.008  
      30      1.008  
      31      1.008  
      32      1.008  
      33      1.008  
      34      1.008  

Pair Coeffs 

       1      0.066  3.5000000 
       2      0.066  3.5000000 
       3      0.066  3.5000000 
       4      0.066  3.5000000 
       5      0.066  3.5000000 
       6      0.066  3.5000000 
       7      0.066  3.5000000 
       8      0.066  3.5000000 
       9      0.066  3.5000000 
      10      0.066  3.5000000 
      11      0.170  3.3000000 
      12      0.030  2.5000000 
      13      0.030  2.5000000 
      14      0.030  2.5000000 
      15      0.030  2.5000000 
      16      0.030  2.5000000 
      17      0.030  2.5000000 
      18      0.030  2.5000000 
      19      0.030  2.5000000 
      20      0.030  2.5000000 
      21      0.030  2.5000000 
      22      0.030  2.5000000 
      23      0.030  2.5000000 
      24      0.030  2.5000000 
      25      0.030  2.5000000 
      26      0.030  2.5000000 
      27      0.030  2.5000000 
      28      0.030  2.5000000 
      29      0.030  2.5000000 
      30      0.030  2.5000000 
      31      0.030  2.5000000 
      32      0.030  2.5000000 
      33      0.000  0.0000000 
      34      0.000  0.0000000 

Bond Coeffs 

       1   268.0000     1.5290 
       2   268.0000     1.5290 
       3   268.0000     1.5290 
       4   268.0000     1.5290 
       5   268.0000     1.5290 
       6   268.0000     1.5290 
       7   268.0000     1.5290 
       8   268.0000     1.5290 
       9   268.0000     1.5290 
      10   382.0000     1.4480 
      11   340.0000     1.0900 
      12   340.0000     1.0900 
      13   340.0000     1.0900 
      14   340.0000     1.0900 
      15   340.0000     1.0900 
      16   340.0000     1.0900 
      17   340.0000     1.0900 
      18   340.0000     1.0900 
      19   340.0000     1.0900 
      20   340.0000     1.0900 
      21   340.0000     1.0900 
      22   340.0000     1.0900 
      23   340.0000     1.0900 
      24   340.0000     1.0900 
      25   340.0000     1.0900 
      26   340.0000     1.0900 
      27   340.0000     1.0900 
      28   340.0000     1.0900 
      29   340.0000     1.0900 
      30   340.0000     1.0900 
      31   340.0000     1.0900 
      32   434.0000     1.0100 
      33   434.0000     1.0100 

Angle Coeffs 

       1     58.350    112.700
       2     58.350    112.700
       3     58.350    112.700
       4     58.350    112.700
       5     58.350    112.700
       6     58.350    112.700
       7     58.350    112.700
       8     58.350    112.700
       9     56.200    109.470
      10     37.500    110.700
      11     37.500    110.700
      12     37.500    110.700
      13     37.500    110.700
      14     37.500    110.700
      15     37.500    110.700
      16     37.500    110.700
      17     37.500    110.700
      18     37.500    110.700
      19     37.500    110.700
      20     37.500    110.700
      21     37.500    110.700
      22     37.500    110.700
      23     37.500    110.700
      24     37.500    110.700
      25     37.500    110.700
      26     37.500    110.700
      27     37.500    110.700
      28     37.500    110.700
      29     37.500    110.700
      30     37.500    110.700
      31     35.000    109.500
      32     35.000    109.500
      33     37.500    110.700
      34     37.500    110.700
      35     33.000    107.800
      36     37.500    110.700
      37     33.000    107.800
      38     33.000    107.800
      39     37.500    110.700
      40     33.000    107.800
      41     33.000    107.800
      42     37.500    110.700
      43     37.500    110.700
      44     35.000    109.500
      45     37.500    110.700
      46     43.600    106.400
      47     33.000    107.800
      48     37.500    110.700
      49     33.000    107.800
      50     37.500    110.700
      51     37.500    110.700
      52     37.500    110.700
      53     33.000    107.800
      54     37.500    110.700
      55     33.000    107.800
      56     35.000    109.500
      57     37.500    110.700
      58     37.500    110.700
      59     33.000    107.800
      60     33.000    107.800
      61     37.500    110.700
      62     33.000    107.800
      63     37.500    110.700

Dihedral Coeffs  

       1      1.300     -0.200      0.200      0.000 
       2      1.300     -0.200      0.200      0.000 
       3      1.300     -0.200      0.200      0.000 
       4      1.300     -0.200      0.200      0.000 
       5      1.300     -0.200      0.200      0.000 
       6      1.300     -0.200      0.200      0.000 
       7      1.300     -0.200      0.200      0.000 
       8      2.392     -0.674      0.550      0.000 
       9      0.000      0.000      0.300      0.000 
      10     -0.190     -0.417      0.418      0.000 
      11      0.000      0.000      0.300      0.000 
      12      0.000      0.000      0.300      0.000 
      13      0.000      0.000      0.300      0.000 
      14      0.000      0.000      0.300      0.000 
      15      0.000      0.000      0.300      0.000 
      16      0.000      0.000      0.300      0.000 
      17      0.000      0.000      0.300      0.000 
      18      0.000      0.000      0.300      0.000 
      19      0.000      0.000      0.300      0.000 
      20      0.000      0.000      0.300      0.000 
      21      0.000      0.000      0.300      0.000 
      22      0.000      0.000      0.300      0.000 
      23      0.000      0.000      0.300      0.000 
      24      0.000      0.000      0.300      0.000 
      25      0.000      0.000      0.300      0.000 
      26      0.000      0.000      0.300      0.000 
      27      0.000      0.000      0.300      0.000 
      28      0.000      0.000      0.300      0.000 
      29      0.000      0.000      0.400      0.000 
      30      0.000      0.000      0.300      0.000 
      31      0.000      0.000      0.300      0.000 
      32      0.000      0.000      0.300      0.000 
      33      0.000      0.000      0.300      0.000 
      34      0.000      0.000      0.300      0.000 
      35      0.000      0.000      0.300      0.000 
      36      0.000      0.000      0.300      0.000 
      37      0.000      0.000      0.300      0.000 
      38      0.000      0.000      0.300      0.000 
      39      0.000      0.000      0.300      0.000 
      40      0.000      0.000      0.300      0.000 
      41      0.000      0.000      0.300      0.000 
      42      0.000      0.000      0.300      0.000 
      43      0.000      0.000      0.300      0.000 
      44     -1.013     -0.709      0.473      0.000 
      45      0.000      0.000      0.300      0.000 
      46      0.000      0.000      0.300      0.000 
      47      0.000      0.000      0.300      0.000 
      48      0.000      0.000      0.300      0.000 
      49      0.000      0.000      0.300      0.000 
      50      0.000      0.000      0.300      0.000 
      51      0.000      0.000      0.300      0.000 
      52      0.000      0.000      0.300      0.000 
      53      0.000      0.000      0.300      0.000 
      54      0.000      0.000      0.300      0.000 
      55      0.000      0.000      0.300      0.000 
      56      0.000      0.000      0.300      0.000 
      57      0.000      0.000      0.300      0.000 
      58      0.000      0.000      0.300      0.000 
      59      0.000      0.000      0.300      0.000 
      60     -1.013     -0.709      0.473      0.000 
      61      0.000      0.000      0.300      0.000 
      62     -0.190     -0.417      0.418      0.000 
      63      0.000      0.000      0.300      0.000 
      64      0.000      0.000      0.300      0.000 
      65      0.000      0.000      0.400      0.000 
      66      0.000      0.000      0.300      0.000 
      67      0.000      0.000      0.300      0.000 
      68      0.000      0.000      0.300      0.000 
      69      0.000      0.000      0.300      0.000 
      70      0.000      0.000      0.300      0.000 
      71      0.000      0.000      0.300      0.000 
      72      0.000      0.000      0.300      0.000 
      73      0.000      0.000      0.300      0.000 
      74      0.000      0.000      0.300      0.000 
      75      0.000      0.000      0.300      0.000 
      76      0.000      0.000      0.300      0.000 
      77      0.000      0.000      0.300      0.000 
      78      0.000      0.000      0.300      0.000 
      79      0.000      0.000      0.300      0.000 
      80      0.000      0.000      0.400      0.000 
      81      0.000      0.000      0.400      0.000 
      82      0.000      0.000      0.300      0.000 
      83      0.000      0.000      0.300      0.000 
      84      0.000      0.000      0.300      0.000 
      85      0.000      0.000      0.300      0.000 
      86      0.000      0.000      0.300      0.000 
      87      0.000      0.000      0.300      0.000 

Improper Coeffs 

       1      0.000      -1       2 
       2      0.000      -1       2 
       3      0.000      -1       2 
       4      0.000      -1       2 
       5      0.000      -1       2 
       6      0.000      -1       2 
       7      0.000      -1       2 
       8      0.000      -1       2 
       9      0.000      -1       2 
      10      0.000      -1       2 
      11      0.000      -1       2 
      12      0.000      -1       2 
      13      0.000      -1       2 
      14      0.000      -1       2 
      15      0.000      -1       2 
      16      0.000      -1       2 
      17      0.000      -1       2 
      18      0.000      -1       2 
      19      0.000      -1       2 
      20      0.000      -1       2 
      21      0.000      -1       2 

Atoms 

     1      1      1 -0.23880000    1.000  1.00000  0.00000
     2      1      2 -0.17930000   -0.520  1.00000  0.00000
     3      1      3 -0.17830000   -1.075  1.00000  1.42335
     4      1      4 -0.17900000   -2.604  1.00180  1.42499
     5      1      5 -0.17890000   -3.153  1.00359  2.85182
     6      1      6 -0.17880000   -4.682  1.00360  2.85838
     7      1      7 -0.17810000   -5.227  1.00720  4.28701
     8      1      8 -0.17910000   -6.756  1.00541  4.29686
     9      1      9 -0.18110000   -7.299  1.00721  5.72676
    10      1     10 0.08880000   -8.826  1.00362  5.73496
    11      1     11 -0.92730000   -9.322  1.00713  7.10587
    12      1     12 0.08080000    1.378  1.00130 -1.02699
    13      1     13 0.08080000    1.391  0.11166  0.50631
    14      1     14 0.08080000    1.391  1.88770  0.50757
    15      1     15 0.08820000   -0.880  0.11696 -0.54081
    16      1     16 0.08820000   -0.880  1.88303 -0.54080
    17      1     17 0.08950000   -0.706  1.88223  1.96078
    18      1     18 0.08950000   -0.708  0.11645  1.95995
    19      1     19 0.08910000   -2.974  0.11874  0.88953
    20      1     20 0.08910000   -2.971  1.88490  0.88809
    21      1     21 0.08970000   -2.784  1.88782  3.38578
    22      1     22 0.08970000   -2.783  0.12148  3.38830
    23      1     23 0.08930000   -5.052  0.11915  2.32561
    24      1     24 0.08930000   -5.052  1.88538  2.32113
    25      1     25 0.09070000   -4.857  1.89263  4.81819
    26      1     26 0.09070000   -4.855  0.12578  4.82346
    27      1     27 0.08890000   -7.125  0.12065  3.76397
    28      1     28 0.08890000   -7.127  1.88751  3.76092
    29      1     29 0.09840000   -6.926  1.89261  6.25742
    30      1     30 0.09840000   -6.921  0.12619  6.26065
    31      1     31 0.07750000   -9.205  0.11791  5.21333
    32      1     32 0.07750000   -9.207  1.88871  5.21416
    33      1     33 0.33230000   -8.993  0.17412  7.59181
    34      1     34 0.33230000  -10.340  0.94806  7.09694

Bonds 

     1      1      2      1
     2      2      3      2
     3      3      4      3
     4      4      5      4
     5      5      6      5
     6      6      7      6
     7      7      8      7
     8      8      9      8
     9      9     10      9
    10     10     11     10
    11     11     12      1
    12     12     13      1
    13     13     14      1
    14     14     15      2
    15     15     16      2
    16     16     17      3
    17     17     18      3
    18     18     19      4
    19     19     20      4
    20     20     21      5
    21     21     22      5
    22     22     23      6
    23     23     24      6
    24     24     25      7
    25     25     26      7
    26     26     27      8
    27     27     28      8
    28     28     29      9
    29     29     30      9
    30     30     31     10
    31     31     32     10
    32     32     33     11
    33     33     34     11

Angles 

     1      1      1      2      3
     2      2      2      3      4
     3      3      3      4      5
     4      4      4      5      6
     5      5      5      6      7
     6      6      6      7      8
     7      7      7      8      9
     8      8      8      9     10
     9      9      9     10     11
    10     10      2      1     12
    11     11      2      1     13
    12     12      2      1     14
    13     13      1      2     15
    14     14      1      2     16
    15     15      2      3     17
    16     16      2      3     18
    17     17      3      4     19
    18     18      3      4     20
    19     19      4      5     21
    20     20      4      5     22
    21     21      5      6     23
    22     22      5      6     24
    23     23      6      7     25
    24     24      6      7     26
    25     25      7      8     27
    26     26      7      8     28
    27     27      8      9     29
    28     28      8      9     30
    29     29      9     10     31
    30     30      9     10     32
    31     31     10     11     33
    32     32     10     11     34
    33     33      9      8     28
    34     34     10      9     30
    35     35     29      9     30
    36     36     10      9     29
    37     37     19      4     20
    38     38     21      5     22
    39     39      3      2     15
    40     40     13      1     14
    41     41     23      6     24
    42     42      6      5     22
    43     43      7      6     23
    44     44     11     10     32
    45     45      8      7     26
    46     46     33     11     34
    47     47     12      1     14
    48     48      3      2     16
    49     49     27      8     28
    50     50      4      3     18
    51     51      7      6     24
    52     52      8      7     25
    53     53     12      1     13
    54     54      5      4     19
    55     55     25      7     26
    56     56     11     10     31
    57     57      6      5     21
    58     58      5      4     20
    59     59     31     10     32
    60     60     15      2     16
    61     61      4      3     17
    62     62     17      3     18
    63     63      9      8     27

Dihedrals

     1      1      4      3      2      1 
     2      2      5      4      3      2 
     3      3      6      5      4      3 
     4      4      7      6      5      4 
     5      5      8      7      6      5 
     6      6      9      8      7      6 
     7      7     10      9      8      7 
     8      8     11     10      9      8 
     9      9     12      1      2      3 
    10     10     33     11     10      9 
    11     11     23      6      7      8 
    12     12     21      5      4      3 
    13     13     28      8      9     10 
    14     14     23      6      5      4 
    15     15     17      3      2     16 
    16     16     18      3      2     15 
    17     17     24      6      5     22 
    18     18     19      4      3      2 
    19     19     20      4      3     18 
    20     20     16      2      1     13 
    21     21     31     10      9     29 
    22     22     13      1      2      3 
    23     23     25      7      6     23 
    24     24     29      9      8      7 
    25     25     32     10      9     30 
    26     26     27      8      7     26 
    27     27     28      8      7     25 
    28     28     16      2      3      4 
    29     29     34     11     10     32 
    30     30     15      2      1     12 
    31     31     23      6      5     21 
    32     32     22      5      4     19 
    33     33     28      8      7     26 
    34     34     32     10      9      8 
    35     35     17      3      2     15 
    36     36     27      8      7      6 
    37     37     30      9      8     27 
    38     38     29      9      8     28 
    39     39     26      7      6     24 
    40     40     19      4      5      6 
    41     41     22      5      4      3 
    42     42     30      9      8      7 
    43     43     27      8      9     10 
    44     44     29      9     10     11 
    45     45     16      2      1     14 
    46     46     21      5      6      7 
    47     47     24      6      7      8 
    48     48     15      2      3      4 
    49     49     18      3      2      1 
    50     50     25      7      6      5 
    51     51     20      4      5      6 
    52     52     18      3      4      5 
    53     53     30      9      8     28 
    54     54     26      7      6     23 
    55     55     25      7      6     24 
    56     56     24      6      5      4 
    57     57     20      4      3     17 
    58     58     19      4      3     18 
    59     59     19      4      3     17 
    60     60     30      9     10     11 
    61     61     22      5      6      7 
    62     62     34     11     10      9 
    63     63     17      3      4      5 
    64     64     20      4      3      2 
    65     65     33     11     10     31 
    66     66     29      9      8     27 
    67     67     15      2      1     13 
    68     68     16      2      1     12 
    69     69     18      3      2     16 
    70     70     21      5      4     19 
    71     71     22      5      4     20 
    72     72     24      6      5     21 
    73     73     23      6      5     22 
    74     74     26      7      8      9 
    75     75     31     10      9      8 
    76     76     15      2      1     14 
    77     77     27      8      7     25 
    78     78     17      3      2      1 
    79     79     26      7      6      5 
    80     80     34     11     10     31 
    81     81     33     11     10     32 
    82     82     14      1      2      3 
    83     83     21      5      4     20 
    84     84     32     10      9     29 
    85     85     31     10      9     30 
    86     86     28      8      7      6 
    87     87     25      7      8      9 

Impropers

     1      1      1      2     12     13 
     2      2      1      2     12     14 
     3      3      2      1      3     15 
     4      4      2      1      3     16 
     5      5      3     17      2      4 
     6      6      3     18      4      2 
     7      7      4     19      5      3 
     8      8      4      3     20      5 
     9      9      5      4     21      6 
    10     10      5      4     22      6 
    11     11      6      7      5     23 
    12     12      6      5      7     24 
    13     13      7     25      6      8 
    14     14      7     26      6      8 
    15     15      8      9     27      7 
    16     16      8      9     28      7 
    17     17      9     10     29      8 
    18     18      9     10     30      8 
    19     19     10      9     11     31 
    20     20     10      9     11     32 
    21     21     11     33     34     10 

