#C8_anion

25 atoms
4 atom types

24 bonds
4 bond types

45 angles
7 angle types

60 dihedrals
5 dihedral types

15 impropers
2 improper types

-7.43558  42.56442  xlo xhi
0  50.11108  ylo yhi
-1.02714  48.97286  zlo zhi

Masses

1  12.011
2  12.011
3  15.999
4  1.008

Pair Coeffs

1  0.066  3.5
2  0.07  3.55
3  0.21  2.96
4  0.03  2.5

Bond Coeffs

1  268.0  1.529
2  317.0  1.522
3  656.0  1.25
4  340.0  1.09

Angle Coeffs

1  58.35  112.7
2  63.0  111.1
3  70.0  117.0
4  37.5  110.7
5  33.0  107.8
6  80.0  126.0
7  35.0  109.5

Dihedral Coeffs

1  1.3  -0.2  0.2  0.0
2  -2.06  -0.313  0.315  0.0
3  0.0  0.0  0.0  0.0
4  0.0  0.0  0.3  0.0
5  0.0  0.0  -0.1  0.0

Improper Coeffs

1  10.5  -1.0  2.0
2  0.0  -1.0  2.0

Atoms # full

1  1  1  -0.2079   1   1   0
2  1  1  -0.1585  -0.52   1   0
3  1  1  -0.1571  -1.08   1   1.42236
4  1  1  -0.1572  -2.609   0.9982   1.41252
5  1  1  -0.1612  -3.178   0.99998   2.83215
6  1  1  -0.1358  -4.708   0.99635   2.80918
7  1  1  -0.233  -5.29   0.99988   4.21816
8  1  2   0.4283  -6.821   0.99479   4.28355
9  1  3  -0.6311  -7.436   0.9883   3.18189
10  1  3  -0.6311  -7.286   0.99927   5.46066
11  1  4   0.0642   1.378   1.0013  -1.02714
12  1  4   0.0642   1.391   0.11108   0.50529
13  1  4   0.0642   1.391   1.88756   0.50749
14  1  4   0.0751  -0.879   0.11656  -0.54105
15  1  4   0.0751  -0.879   1.88335  -0.54099
16  1  4   0.0731  -0.716   1.88409   1.95971
17  1  4   0.0731  -0.714   0.11759   1.96148
18  1  4   0.075  -2.97   0.11366   0.87365
19  1  4   0.075  -2.972   1.88   0.87061
20  1  4   0.0649  -2.82   1.88569   3.37084
21  1  4   0.0649  -2.816   0.11831   3.37475
22  1  4   0.0791  -5.062   0.11191   2.26539
23  1  4   0.0791  -5.066   1.87539   2.25927
24  1  4   0.0589  -4.938   1.88788   4.75745
25  1  4   0.0589  -4.932   0.11865   4.76441

Bonds

1  1  2  1
2  1  3  2
3  1  4  3
4  1  5  4
5  1  6  5
6  1  7  6
7  2  8  7
8  3  9  8
9  3  10  8
10  4  11  1
11  4  12  1
12  4  13  1
13  4  14  2
14  4  15  2
15  4  16  3
16  4  17  3
17  4  18  4
18  4  19  4
19  4  20  5
20  4  21  5
21  4  22  6
22  4  23  6
23  4  24  7
24  4  25  7

Angles

1  1  1  2  3
2  1  2  3  4
3  1  3  4  5
4  1  4  5  6
5  1  5  6  7
6  2  6  7  8
7  3  7  8  9
8  3  7  8  10
9  4  2  1  11
10  4  2  1  12
11  4  2  1  13
12  4  1  2  14
13  4  1  2  15
14  4  2  3  16
15  4  2  3  17
16  4  3  4  18
17  4  3  4  19
18  4  4  5  20
19  4  4  5  21
20  4  5  6  22
21  4  5  6  23
22  4  6  7  24
23  4  6  7  25
24  5  16  3  17
25  4  3  2  14
26  4  3  2  15
27  6  9  8  10
28  5  11  1  13
29  4  7  6  22
30  5  12  1  13
31  5  14  2  15
32  4  7  6  23
33  7  8  7  25
34  5  11  1  12
35  4  6  5  20
36  5  22  6  23
37  4  5  4  19
38  4  6  5  21
39  4  4  3  16
40  4  4  3  17
41  7  8  7  24
42  5  20  5  21
43  4  5  4  18
44  5  24  7  25
45  5  18  4  19

Dihedrals

1  1  4  3  2  1
2  1  5  4  3  2
3  1  6  5  4  3
4  1  7  6  5  4
5  2  8  7  6  5
6  3  9  8  7  6
7  4  11  1  2  3
8  4  18  4  3  16
9  5  23  6  7  8
10  4  21  5  4  19
11  4  13  1  2  3
12  4  23  6  5  4
13  4  17  3  2  14
14  4  18  4  3  2
15  4  14  2  1  13
16  4  15  2  1  12
17  3  24  7  8  9
18  4  25  7  6  5
19  3  24  7  8  10
20  4  20  5  4  3
21  4  20  5  4  19
22  4  15  2  3  4
23  4  22  6  5  20
24  4  22  6  5  21
25  4  25  7  6  23
26  4  23  6  5  21
27  4  17  3  2  15
28  4  18  4  5  6
29  4  14  2  1  11
30  4  24  7  6  22
31  3  25  7  8  10
32  4  12  1  2  3
33  4  20  5  4  18
34  4  16  3  4  5
35  4  20  5  6  7
36  4  22  6  5  4
37  4  19  4  3  17
38  4  21  5  4  18
39  3  10  8  7  6
40  4  19  4  3  2
41  4  16  3  2  1
42  4  14  2  3  4
43  4  17  3  4  5
44  4  17  3  2  1
45  4  16  3  2  14
46  4  24  7  6  23
47  5  22  6  7  8
48  4  19  4  5  6
49  4  21  5  4  3
50  4  21  5  6  7
51  4  18  4  3  17
52  4  19  4  3  16
53  4  25  7  6  22
54  3  25  7  8  9
55  4  16  3  2  15
56  4  15  2  1  11
57  4  14  2  1  12
58  4  24  7  6  5
59  4  23  6  5  20
60  4  15  2  1  13

Impropers

1  1  8  9  10  7
2  2  1  2  11  12
3  2  1  2  11  13
4  2  2  1  3  14
5  2  2  1  3  15
6  2  3  2  4  16
7  2  3  17  2  4
8  2  4  18  3  5
9  2  4  19  5  3
10  2  5  4  20  6
11  2  5  4  21  6
12  2  6  5  22  7
13  2  6  7  5  23
14  2  7  8  6  24
15  2  7  25  6  8
