LAMMPS data file Created by LigParGen - (Written by Leela S. Dodda)

      25 atoms
      24 bonds
      45 angles
      60 dihedrals
      15 impropers
 
      25 atom types
      24 bond types
      45 angle types
      60 dihedral types
      15 improper types
 
   -7.435580    42.564420 xlo xhi
    0.111080    50.111080 ylo yhi
   -1.027140    48.972860 zlo zhi

Masses

       1     12.011  
       2     12.011  
       3     12.011  
       4     12.011  
       5     12.011  
       6     12.011  
       7     12.011  
       8     12.011  
       9     15.999  
      10     15.999  
      11      1.008  
      12      1.008  
      13      1.008  
      14      1.008  
      15      1.008  
      16      1.008  
      17      1.008  
      18      1.008  
      19      1.008  
      20      1.008  
      21      1.008  
      22      1.008  
      23      1.008  
      24      1.008  
      25      1.008  

Pair Coeffs 

       1      0.066  3.5000000 
       2      0.066  3.5000000 
       3      0.066  3.5000000 
       4      0.066  3.5000000 
       5      0.066  3.5000000 
       6      0.066  3.5000000 
       7      0.066  3.5000000 
       8      0.070  3.5500000 
       9      0.210  2.9600000 
      10      0.210  2.9600000 
      11      0.030  2.5000000 
      12      0.030  2.5000000 
      13      0.030  2.5000000 
      14      0.030  2.5000000 
      15      0.030  2.5000000 
      16      0.030  2.5000000 
      17      0.030  2.5000000 
      18      0.030  2.5000000 
      19      0.030  2.5000000 
      20      0.030  2.5000000 
      21      0.030  2.5000000 
      22      0.030  2.5000000 
      23      0.030  2.5000000 
      24      0.030  2.5000000 
      25      0.030  2.5000000 

Bond Coeffs 

       1   268.0000     1.5290 
       2   268.0000     1.5290 
       3   268.0000     1.5290 
       4   268.0000     1.5290 
       5   268.0000     1.5290 
       6   268.0000     1.5290 
       7   317.0000     1.5220 
       8   656.0000     1.2500 
       9   656.0000     1.2500 
      10   340.0000     1.0900 
      11   340.0000     1.0900 
      12   340.0000     1.0900 
      13   340.0000     1.0900 
      14   340.0000     1.0900 
      15   340.0000     1.0900 
      16   340.0000     1.0900 
      17   340.0000     1.0900 
      18   340.0000     1.0900 
      19   340.0000     1.0900 
      20   340.0000     1.0900 
      21   340.0000     1.0900 
      22   340.0000     1.0900 
      23   340.0000     1.0900 
      24   340.0000     1.0900 

Angle Coeffs 

       1     58.350    112.700
       2     58.350    112.700
       3     58.350    112.700
       4     58.350    112.700
       5     58.350    112.700
       6     63.000    111.100
       7     70.000    117.000
       8     70.000    117.000
       9     37.500    110.700
      10     37.500    110.700
      11     37.500    110.700
      12     37.500    110.700
      13     37.500    110.700
      14     37.500    110.700
      15     37.500    110.700
      16     37.500    110.700
      17     37.500    110.700
      18     37.500    110.700
      19     37.500    110.700
      20     37.500    110.700
      21     37.500    110.700
      22     37.500    110.700
      23     37.500    110.700
      24     33.000    107.800
      25     37.500    110.700
      26     37.500    110.700
      27     80.000    126.000
      28     33.000    107.800
      29     37.500    110.700
      30     33.000    107.800
      31     33.000    107.800
      32     37.500    110.700
      33     35.000    109.500
      34     33.000    107.800
      35     37.500    110.700
      36     33.000    107.800
      37     37.500    110.700
      38     37.500    110.700
      39     37.500    110.700
      40     37.500    110.700
      41     35.000    109.500
      42     33.000    107.800
      43     37.500    110.700
      44     33.000    107.800
      45     33.000    107.800

Dihedral Coeffs  

       1      1.300     -0.200      0.200      0.000 
       2      1.300     -0.200      0.200      0.000 
       3      1.300     -0.200      0.200      0.000 
       4      1.300     -0.200      0.200      0.000 
       5     -2.060     -0.313      0.315      0.000 
       6      0.000      0.000      0.000      0.000 
       7      0.000      0.000      0.300      0.000 
       8      0.000      0.000      0.300      0.000 
       9      0.000      0.000     -0.100      0.000 
      10      0.000      0.000      0.300      0.000 
      11      0.000      0.000      0.300      0.000 
      12      0.000      0.000      0.300      0.000 
      13      0.000      0.000      0.300      0.000 
      14      0.000      0.000      0.300      0.000 
      15      0.000      0.000      0.300      0.000 
      16      0.000      0.000      0.300      0.000 
      17      0.000      0.000      0.000      0.000 
      18      0.000      0.000      0.300      0.000 
      19      0.000      0.000      0.000      0.000 
      20      0.000      0.000      0.300      0.000 
      21      0.000      0.000      0.300      0.000 
      22      0.000      0.000      0.300      0.000 
      23      0.000      0.000      0.300      0.000 
      24      0.000      0.000      0.300      0.000 
      25      0.000      0.000      0.300      0.000 
      26      0.000      0.000      0.300      0.000 
      27      0.000      0.000      0.300      0.000 
      28      0.000      0.000      0.300      0.000 
      29      0.000      0.000      0.300      0.000 
      30      0.000      0.000      0.300      0.000 
      31      0.000      0.000      0.000      0.000 
      32      0.000      0.000      0.300      0.000 
      33      0.000      0.000      0.300      0.000 
      34      0.000      0.000      0.300      0.000 
      35      0.000      0.000      0.300      0.000 
      36      0.000      0.000      0.300      0.000 
      37      0.000      0.000      0.300      0.000 
      38      0.000      0.000      0.300      0.000 
      39      0.000      0.000      0.000      0.000 
      40      0.000      0.000      0.300      0.000 
      41      0.000      0.000      0.300      0.000 
      42      0.000      0.000      0.300      0.000 
      43      0.000      0.000      0.300      0.000 
      44      0.000      0.000      0.300      0.000 
      45      0.000      0.000      0.300      0.000 
      46      0.000      0.000      0.300      0.000 
      47      0.000      0.000     -0.100      0.000 
      48      0.000      0.000      0.300      0.000 
      49      0.000      0.000      0.300      0.000 
      50      0.000      0.000      0.300      0.000 
      51      0.000      0.000      0.300      0.000 
      52      0.000      0.000      0.300      0.000 
      53      0.000      0.000      0.300      0.000 
      54      0.000      0.000      0.000      0.000 
      55      0.000      0.000      0.300      0.000 
      56      0.000      0.000      0.300      0.000 
      57      0.000      0.000      0.300      0.000 
      58      0.000      0.000      0.300      0.000 
      59      0.000      0.000      0.300      0.000 
      60      0.000      0.000      0.300      0.000 

Improper Coeffs 

       1     10.500      -1       2 
       2      0.000      -1       2 
       3      0.000      -1       2 
       4      0.000      -1       2 
       5      0.000      -1       2 
       6      0.000      -1       2 
       7      0.000      -1       2 
       8      0.000      -1       2 
       9      0.000      -1       2 
      10      0.000      -1       2 
      11      0.000      -1       2 
      12      0.000      -1       2 
      13      0.000      -1       2 
      14      0.000      -1       2 
      15      0.000      -1       2 

Atoms 

     1      1      1 -0.20790000    1.000  1.00000  0.00000
     2      1      2 -0.15850000   -0.520  1.00000  0.00000
     3      1      3 -0.15710000   -1.080  1.00000  1.42236
     4      1      4 -0.15720000   -2.609  0.99820  1.41252
     5      1      5 -0.16120000   -3.178  0.99998  2.83215
     6      1      6 -0.13580000   -4.708  0.99635  2.80918
     7      1      7 -0.23300000   -5.290  0.99988  4.21816
     8      1      8 0.42830000   -6.821  0.99479  4.28355
     9      1      9 -0.63110000   -7.436  0.98830  3.18189
    10      1     10 -0.63110000   -7.286  0.99927  5.46066
    11      1     11 0.06420000    1.378  1.00130 -1.02714
    12      1     12 0.06420000    1.391  0.11108  0.50529
    13      1     13 0.06420000    1.391  1.88756  0.50749
    14      1     14 0.07510000   -0.879  0.11656 -0.54105
    15      1     15 0.07510000   -0.879  1.88335 -0.54099
    16      1     16 0.07310000   -0.716  1.88409  1.95971
    17      1     17 0.07310000   -0.714  0.11759  1.96148
    18      1     18 0.07500000   -2.970  0.11366  0.87365
    19      1     19 0.07500000   -2.972  1.88000  0.87061
    20      1     20 0.06490000   -2.820  1.88569  3.37084
    21      1     21 0.06490000   -2.816  0.11831  3.37475
    22      1     22 0.07910000   -5.062  0.11191  2.26539
    23      1     23 0.07910000   -5.066  1.87539  2.25927
    24      1     24 0.05890000   -4.938  1.88788  4.75745
    25      1     25 0.05890000   -4.932  0.11865  4.76441

Bonds 

     1      1      2      1
     2      2      3      2
     3      3      4      3
     4      4      5      4
     5      5      6      5
     6      6      7      6
     7      7      8      7
     8      8      9      8
     9      9     10      8
    10     10     11      1
    11     11     12      1
    12     12     13      1
    13     13     14      2
    14     14     15      2
    15     15     16      3
    16     16     17      3
    17     17     18      4
    18     18     19      4
    19     19     20      5
    20     20     21      5
    21     21     22      6
    22     22     23      6
    23     23     24      7
    24     24     25      7

Angles 

     1      1      1      2      3
     2      2      2      3      4
     3      3      3      4      5
     4      4      4      5      6
     5      5      5      6      7
     6      6      6      7      8
     7      7      7      8      9
     8      8      7      8     10
     9      9      2      1     11
    10     10      2      1     12
    11     11      2      1     13
    12     12      1      2     14
    13     13      1      2     15
    14     14      2      3     16
    15     15      2      3     17
    16     16      3      4     18
    17     17      3      4     19
    18     18      4      5     20
    19     19      4      5     21
    20     20      5      6     22
    21     21      5      6     23
    22     22      6      7     24
    23     23      6      7     25
    24     24     16      3     17
    25     25      3      2     14
    26     26      3      2     15
    27     27      9      8     10
    28     28     11      1     13
    29     29      7      6     22
    30     30     12      1     13
    31     31     14      2     15
    32     32      7      6     23
    33     33      8      7     25
    34     34     11      1     12
    35     35      6      5     20
    36     36     22      6     23
    37     37      5      4     19
    38     38      6      5     21
    39     39      4      3     16
    40     40      4      3     17
    41     41      8      7     24
    42     42     20      5     21
    43     43      5      4     18
    44     44     24      7     25
    45     45     18      4     19

Dihedrals

     1      1      4      3      2      1 
     2      2      5      4      3      2 
     3      3      6      5      4      3 
     4      4      7      6      5      4 
     5      5      8      7      6      5 
     6      6      9      8      7      6 
     7      7     11      1      2      3 
     8      8     18      4      3     16 
     9      9     23      6      7      8 
    10     10     21      5      4     19 
    11     11     13      1      2      3 
    12     12     23      6      5      4 
    13     13     17      3      2     14 
    14     14     18      4      3      2 
    15     15     14      2      1     13 
    16     16     15      2      1     12 
    17     17     24      7      8      9 
    18     18     25      7      6      5 
    19     19     24      7      8     10 
    20     20     20      5      4      3 
    21     21     20      5      4     19 
    22     22     15      2      3      4 
    23     23     22      6      5     20 
    24     24     22      6      5     21 
    25     25     25      7      6     23 
    26     26     23      6      5     21 
    27     27     17      3      2     15 
    28     28     18      4      5      6 
    29     29     14      2      1     11 
    30     30     24      7      6     22 
    31     31     25      7      8     10 
    32     32     12      1      2      3 
    33     33     20      5      4     18 
    34     34     16      3      4      5 
    35     35     20      5      6      7 
    36     36     22      6      5      4 
    37     37     19      4      3     17 
    38     38     21      5      4     18 
    39     39     10      8      7      6 
    40     40     19      4      3      2 
    41     41     16      3      2      1 
    42     42     14      2      3      4 
    43     43     17      3      4      5 
    44     44     17      3      2      1 
    45     45     16      3      2     14 
    46     46     24      7      6     23 
    47     47     22      6      7      8 
    48     48     19      4      5      6 
    49     49     21      5      4      3 
    50     50     21      5      6      7 
    51     51     18      4      3     17 
    52     52     19      4      3     16 
    53     53     25      7      6     22 
    54     54     25      7      8      9 
    55     55     16      3      2     15 
    56     56     15      2      1     11 
    57     57     14      2      1     12 
    58     58     24      7      6      5 
    59     59     23      6      5     20 
    60     60     15      2      1     13 

Impropers

     1      1      8      9     10      7 
     2      2      1      2     11     12 
     3      3      1      2     11     13 
     4      4      2      1      3     14 
     5      5      2      1      3     15 
     6      6      3      2      4     16 
     7      7      3     17      2      4 
     8      8      4     18      3      5 
     9      9      4     19      5      3 
    10     10      5      4     20      6 
    11     11      5      4     21      6 
    12     12      6      5     22      7 
    13     13      6      7      5     23 
    14     14      7      8      6     24 
    15     15      7     25      6      8 

