LAMMPS data file Created by LigParGen - (Written by Leela S. Dodda)

      26 atoms
      25 bonds
      46 angles
      62 dihedrals
      15 impropers
 
      26 atom types
      25 bond types
      46 angle types
      62 dihedral types
      15 improper types
 
   -7.501140    42.498860 xlo xhi
    0.109480    50.109480 ylo yhi
   -1.027230    48.972770 zlo zhi

Masses

       1     12.011  
       2     12.011  
       3     12.011  
       4     12.011  
       5     12.011  
       6     12.011  
       7     12.011  
       8     12.011  
       9     15.999  
      10     15.999  
      11      1.008  
      12      1.008  
      13      1.008  
      14      1.008  
      15      1.008  
      16      1.008  
      17      1.008  
      18      1.008  
      19      1.008  
      20      1.008  
      21      1.008  
      22      1.008  
      23      1.008  
      24      1.008  
      25      1.008  
      26      1.008  

Pair Coeffs 

       1      0.066  3.5000000 
       2      0.066  3.5000000 
       3      0.066  3.5000000 
       4      0.066  3.5000000 
       5      0.066  3.5000000 
       6      0.066  3.5000000 
       7      0.066  3.5000000 
       8      0.070  3.5500000 
       9      0.210  2.9600000 
      10      0.170  3.1200000 
      11      0.030  2.5000000 
      12      0.030  2.5000000 
      13      0.030  2.5000000 
      14      0.030  2.5000000 
      15      0.030  2.5000000 
      16      0.030  2.5000000 
      17      0.030  2.5000000 
      18      0.030  2.5000000 
      19      0.030  2.5000000 
      20      0.030  2.5000000 
      21      0.030  2.5000000 
      22      0.030  2.5000000 
      23      0.030  2.5000000 
      24      0.030  2.5000000 
      25      0.030  2.5000000 
      26      0.000  0.0000000 

Bond Coeffs 

       1   268.0000     1.5290 
       2   268.0000     1.5290 
       3   268.0000     1.5290 
       4   268.0000     1.5290 
       5   268.0000     1.5290 
       6   268.0000     1.5290 
       7   317.0000     1.5220 
       8   570.0000     1.2290 
       9   450.0000     1.3640 
      10   340.0000     1.0900 
      11   340.0000     1.0900 
      12   340.0000     1.0900 
      13   340.0000     1.0900 
      14   340.0000     1.0900 
      15   340.0000     1.0900 
      16   340.0000     1.0900 
      17   340.0000     1.0900 
      18   340.0000     1.0900 
      19   340.0000     1.0900 
      20   340.0000     1.0900 
      21   340.0000     1.0900 
      22   340.0000     1.0900 
      23   340.0000     1.0900 
      24   340.0000     1.0900 
      25   553.0000     0.9450 

Angle Coeffs 

       1     58.350    112.700
       2     58.350    112.700
       3     58.350    112.700
       4     58.350    112.700
       5     58.350    112.700
       6     63.000    111.100
       7     80.000    120.400
       8     70.000    108.000
       9     37.500    110.700
      10     37.500    110.700
      11     37.500    110.700
      12     37.500    110.700
      13     37.500    110.700
      14     37.500    110.700
      15     37.500    110.700
      16     37.500    110.700
      17     37.500    110.700
      18     37.500    110.700
      19     37.500    110.700
      20     37.500    110.700
      21     37.500    110.700
      22     37.500    110.700
      23     37.500    110.700
      24     35.000    113.000
      25     33.000    107.800
      26     37.500    110.700
      27     37.500    110.700
      28     80.000    121.000
      29     33.000    107.800
      30     37.500    110.700
      31     33.000    107.800
      32     33.000    107.800
      33     37.500    110.700
      34     35.000    109.500
      35     33.000    107.800
      36     37.500    110.700
      37     33.000    107.800
      38     37.500    110.700
      39     37.500    110.700
      40     37.500    110.700
      41     37.500    110.700
      42     35.000    109.500
      43     33.000    107.800
      44     37.500    110.700
      45     33.000    107.800
      46     33.000    107.800

Dihedral Coeffs  

       1      1.300     -0.200      0.200      0.000 
       2      1.300     -0.200      0.200      0.000 
       3      1.300     -0.200      0.200      0.000 
       4      1.300     -0.200      0.200      0.000 
       5     -2.060     -0.313      0.315      0.000 
       6      0.000      0.000      0.000      0.000 
       7      0.000      0.000      0.300      0.000 
       8      1.500      5.500      0.000      0.000 
       9      0.000      0.000      0.300      0.000 
      10      0.000      0.000     -0.100      0.000 
      11      0.000      0.000      0.300      0.000 
      12      0.000      0.000      0.300      0.000 
      13      0.000      0.000      0.300      0.000 
      14      0.000      0.000      0.300      0.000 
      15      0.000      0.000      0.300      0.000 
      16      0.000      0.000      0.300      0.000 
      17      0.000      0.000      0.300      0.000 
      18      0.000      0.000      0.000      0.000 
      19      0.000      0.000      0.300      0.000 
      20      0.000      0.000      0.000      0.000 
      21      0.000      0.000      0.300      0.000 
      22      0.000      0.000      0.300      0.000 
      23      0.000      0.000      0.300      0.000 
      24      0.000      0.000      0.300      0.000 
      25      0.000      0.000      0.300      0.000 
      26      0.000      0.000      0.300      0.000 
      27      0.000      0.000      0.300      0.000 
      28      0.000      0.000      0.300      0.000 
      29      0.000      0.000      0.300      0.000 
      30      0.000      5.500      0.000      0.000 
      31      0.000      0.000      0.300      0.000 
      32      0.000      0.000      0.300      0.000 
      33      0.000      0.000      0.000      0.000 
      34      0.000      0.000      0.300      0.000 
      35      0.000      0.000      0.300      0.000 
      36      0.000      0.000      0.300      0.000 
      37      0.000      0.000      0.300      0.000 
      38      0.000      0.000      0.300      0.000 
      39      0.000      0.000      0.300      0.000 
      40      0.000      0.000      0.300      0.000 
      41      1.000      0.546      0.450      0.000 
      42      0.000      0.000      0.300      0.000 
      43      0.000      0.000      0.300      0.000 
      44      0.000      0.000      0.300      0.000 
      45      0.000      0.000      0.300      0.000 
      46      0.000      0.000      0.300      0.000 
      47      0.000      0.000      0.300      0.000 
      48      0.000      0.000      0.300      0.000 
      49      0.000      0.000     -0.100      0.000 
      50      0.000      0.000      0.300      0.000 
      51      0.000      0.000      0.300      0.000 
      52      0.000      0.000      0.300      0.000 
      53      0.000      0.000      0.300      0.000 
      54      0.000      0.000      0.300      0.000 
      55      0.000      0.000      0.300      0.000 
      56      0.000      0.000      0.000      0.000 
      57      0.000      0.000      0.300      0.000 
      58      0.000      0.000      0.300      0.000 
      59      0.000      0.000      0.300      0.000 
      60      0.000      0.000      0.300      0.000 
      61      0.000      0.000      0.300      0.000 
      62      0.000      0.000      0.300      0.000 

Improper Coeffs 

       1     10.500      -1       2 
       2      0.000      -1       2 
       3      0.000      -1       2 
       4      0.000      -1       2 
       5      0.000      -1       2 
       6      0.000      -1       2 
       7      0.000      -1       2 
       8      0.000      -1       2 
       9      0.000      -1       2 
      10      0.000      -1       2 
      11      0.000      -1       2 
      12      0.000      -1       2 
      13      0.000      -1       2 
      14      0.000      -1       2 
      15      0.000      -1       2 

Atoms 

     1      1      1 -0.23890000    1.000  1.00000  0.00000
     2      1      2 -0.17940000   -0.520  1.00000  0.00000
     3      1      3 -0.17770000   -1.080  1.00000  1.42261
     4      1      4 -0.17840000   -2.609  0.99820  1.41276
     5      1      5 -0.17950000   -3.181  0.99998  2.83136
     6      1      6 -0.17050000   -4.710  0.99634  2.80183
     7      1      7 -0.26060000   -5.303  0.99984  4.20943
     8      1      8 0.51000000   -6.815  0.99445  4.17699
     9      1      9 -0.44440000   -7.501  0.98807  3.16853
    10      1     10 -0.56030000   -7.352  0.99907  5.41926
    11      1     11 0.08140000    1.378  1.00130 -1.02723
    12      1     12 0.08140000    1.391  0.11112  0.50526
    13      1     13 0.08140000    1.391  1.88751  0.50746
    14      1     14 0.08960000   -0.879  0.11723 -0.54206
    15      1     15 0.08960000   -0.879  1.88278 -0.54207
    16      1     16 0.08910000   -0.716  1.88409  1.95996
    17      1     17 0.08910000   -0.714  0.11769  1.96167
    18      1     18 0.09340000   -2.970  0.11366  0.87389
    19      1     19 0.09340000   -2.972  1.88003  0.87084
    20      1     20 0.08800000   -2.825  1.88564  3.37080
    21      1     21 0.08800000   -2.821  0.11861  3.37569
    22      1     22 0.11080000   -5.064  0.11299  2.25573
    23      1     23 0.11080000   -5.069  1.87420  2.24965
    24      1     24 0.12110000   -4.975  1.89676  4.74630
    25      1     25 0.12110000   -4.969  0.10948  4.75338
    26      1     26 0.45140000   -6.688  1.00510  6.13395

Bonds 

     1      1      2      1
     2      2      3      2
     3      3      4      3
     4      4      5      4
     5      5      6      5
     6      6      7      6
     7      7      8      7
     8      8      9      8
     9      9     10      8
    10     10     11      1
    11     11     12      1
    12     12     13      1
    13     13     14      2
    14     14     15      2
    15     15     16      3
    16     16     17      3
    17     17     18      4
    18     18     19      4
    19     19     20      5
    20     20     21      5
    21     21     22      6
    22     22     23      6
    23     23     24      7
    24     24     25      7
    25     25     26     10

Angles 

     1      1      1      2      3
     2      2      2      3      4
     3      3      3      4      5
     4      4      4      5      6
     5      5      5      6      7
     6      6      6      7      8
     7      7      7      8      9
     8      8      7      8     10
     9      9      2      1     11
    10     10      2      1     12
    11     11      2      1     13
    12     12      1      2     14
    13     13      1      2     15
    14     14      2      3     16
    15     15      2      3     17
    16     16      3      4     18
    17     17      3      4     19
    18     18      4      5     20
    19     19      4      5     21
    20     20      5      6     22
    21     21      5      6     23
    22     22      6      7     24
    23     23      6      7     25
    24     24      8     10     26
    25     25     16      3     17
    26     26      3      2     14
    27     27      3      2     15
    28     28      9      8     10
    29     29     11      1     13
    30     30      7      6     22
    31     31     12      1     13
    32     32     14      2     15
    33     33      7      6     23
    34     34      8      7     25
    35     35     11      1     12
    36     36      6      5     20
    37     37     22      6     23
    38     38      5      4     19
    39     39      6      5     21
    40     40      4      3     16
    41     41      4      3     17
    42     42      8      7     24
    43     43     20      5     21
    44     44      5      4     18
    45     45     24      7     25
    46     46     18      4     19

Dihedrals

     1      1      4      3      2      1 
     2      2      5      4      3      2 
     3      3      6      5      4      3 
     4      4      7      6      5      4 
     5      5      8      7      6      5 
     6      6      9      8      7      6 
     7      7     11      1      2      3 
     8      8     26     10      8      7 
     9      9     18      4      3     16 
    10     10     23      6      7      8 
    11     11     21      5      4     19 
    12     12     13      1      2      3 
    13     13     23      6      5      4 
    14     14     17      3      2     14 
    15     15     18      4      3      2 
    16     16     14      2      1     13 
    17     17     15      2      1     12 
    18     18     24      7      8      9 
    19     19     25      7      6      5 
    20     20     24      7      8     10 
    21     21     20      5      4      3 
    22     22     20      5      4     19 
    23     23     15      2      3      4 
    24     24     22      6      5     20 
    25     25     22      6      5     21 
    26     26     25      7      6     23 
    27     27     23      6      5     21 
    28     28     17      3      2     15 
    29     29     18      4      5      6 
    30     30     26     10      8      9 
    31     31     14      2      1     11 
    32     32     24      7      6     22 
    33     33     25      7      8     10 
    34     34     12      1      2      3 
    35     35     20      5      4     18 
    36     36     16      3      4      5 
    37     37     20      5      6      7 
    38     38     22      6      5      4 
    39     39     19      4      3     17 
    40     40     21      5      4     18 
    41     41     10      8      7      6 
    42     42     19      4      3      2 
    43     43     16      3      2      1 
    44     44     14      2      3      4 
    45     45     17      3      4      5 
    46     46     17      3      2      1 
    47     47     16      3      2     14 
    48     48     24      7      6     23 
    49     49     22      6      7      8 
    50     50     19      4      5      6 
    51     51     21      5      4      3 
    52     52     21      5      6      7 
    53     53     18      4      3     17 
    54     54     19      4      3     16 
    55     55     25      7      6     22 
    56     56     25      7      8      9 
    57     57     16      3      2     15 
    58     58     15      2      1     11 
    59     59     14      2      1     12 
    60     60     24      7      6      5 
    61     61     23      6      5     20 
    62     62     15      2      1     13 

Impropers

     1      1      8      9     10      7 
     2      2      1      2     11     12 
     3      3      1      2     11     13 
     4      4      2      1      3     14 
     5      5      2      1      3     15 
     6      6      3      2      4     16 
     7      7      3     17      2      4 
     8      8      4     18      3      5 
     9      9      4     19      5      3 
    10     10      5      4     20      6 
    11     11      5      4     21      6 
    12     12      6      5     22      7 
    13     13      6      7      5     23 
    14     14      7      8      6     24 
    15     15      7     25      6      8 

