#C2_amine

10 atoms
4 atom types

9 bonds
4 bond types

15 angles
5 angle types

15 dihedrals
4 dihedral types

5 impropers
1 improper types

-2.0436  47.9564  xlo xhi
0  50.11134  ylo yhi
-1.02784  48.97216  zlo zhi

Masses

1  12.011
2  14.007
3  1.008
4  1.008

Pair Coeffs

1  0.066  3.5
2  0.17  3.3
3  0.03  2.5
4  0.0  0.0

Bond Coeffs

1  268.0  1.529
2  382.0  1.448
3  340.0  1.09
4  434.0  1.01

Angle Coeffs

1  56.2  109.47
2  37.5  110.7
3  35.0  109.5
4  33.0  107.8
5  43.6  106.4

Dihedral Coeffs

1  -1.013  -0.709  0.473  0.0
2  -0.19  -0.417  0.418  0.0
3  0.0  0.0  0.3  0.0
4  0.0  0.0  0.4  0.0

Improper Coeffs

1  0.0  -1.0  2.0

Atoms # full

1  1  1  -0.2413   1   1   0
2  1  1   0.0881  -0.519   1   0
3  1  2  -0.9261  -1.026   1   1.36568
4  1  3   0.0878   1.377   1.0013  -1.02784
5  1  3   0.0878   1.397   0.11134   0.50244
6  1  3   0.0878   1.396   1.88778   0.5049
7  1  3   0.0763  -0.89   0.11722  -0.53076
8  1  3   0.0763  -0.887   1.88847  -0.52297
9  1  4   0.3318  -0.704   0.16345   1.85089
10  1  4   0.3318  -2.044   0.94665   1.34777

Bonds

1  1  2  1
2  2  3  2
3  3  4  1
4  3  5  1
5  3  6  1
6  3  7  2
7  3  8  2
8  4  9  3
9  4  10  3

Angles

1  1  1  2  3
2  2  2  1  4
3  2  2  1  5
4  2  2  1  6
5  2  1  2  7
6  2  1  2  8
7  3  2  3  9
8  3  2  3  10
9  3  3  2  7
10  4  4  1  5
11  4  5  1  6
12  5  9  3  10
13  3  3  2  8
14  4  4  1  6
15  4  7  2  8

Dihedrals

1  1  4  1  2  3
2  2  9  3  2  1
3  1  5  1  2  3
4  2  10  3  2  1
5  3  8  2  1  6
6  4  10  3  2  8
7  4  10  3  2  7
8  4  9  3  2  8
9  4  9  3  2  7
10  3  7  2  1  5
11  3  8  2  1  4
12  3  8  2  1  5
13  1  6  1  2  3
14  3  7  2  1  6
15  3  7  2  1  4

Impropers

1  1  1  2  4  5
2  1  1  2  4  6
3  1  2  1  3  7
4  1  2  1  3  8
5  1  3  9  10  2
