LAMMPS data file Created by LigParGen - (Written by Leela S. Dodda)

      10 atoms
       9 bonds
      15 angles
      15 dihedrals
       5 impropers
 
      10 atom types
       9 bond types
      15 angle types
      15 dihedral types
       5 improper types
 
   -2.043600    47.956400 xlo xhi
    0.111340    50.111340 ylo yhi
   -1.027840    48.972160 zlo zhi

Masses

       1     12.011  
       2     12.011  
       3     14.007  
       4      1.008  
       5      1.008  
       6      1.008  
       7      1.008  
       8      1.008  
       9      1.008  
      10      1.008  

Pair Coeffs 

       1      0.066  3.5000000 
       2      0.066  3.5000000 
       3      0.170  3.3000000 
       4      0.030  2.5000000 
       5      0.030  2.5000000 
       6      0.030  2.5000000 
       7      0.030  2.5000000 
       8      0.030  2.5000000 
       9      0.000  0.0000000 
      10      0.000  0.0000000 

Bond Coeffs 

       1   268.0000     1.5290 
       2   382.0000     1.4480 
       3   340.0000     1.0900 
       4   340.0000     1.0900 
       5   340.0000     1.0900 
       6   340.0000     1.0900 
       7   340.0000     1.0900 
       8   434.0000     1.0100 
       9   434.0000     1.0100 

Angle Coeffs 

       1     56.200    109.470
       2     37.500    110.700
       3     37.500    110.700
       4     37.500    110.700
       5     37.500    110.700
       6     37.500    110.700
       7     35.000    109.500
       8     35.000    109.500
       9     35.000    109.500
      10     33.000    107.800
      11     33.000    107.800
      12     43.600    106.400
      13     35.000    109.500
      14     33.000    107.800
      15     33.000    107.800

Dihedral Coeffs  

       1     -1.013     -0.709      0.473      0.000 
       2     -0.190     -0.417      0.418      0.000 
       3     -1.013     -0.709      0.473      0.000 
       4     -0.190     -0.417      0.418      0.000 
       5      0.000      0.000      0.300      0.000 
       6      0.000      0.000      0.400      0.000 
       7      0.000      0.000      0.400      0.000 
       8      0.000      0.000      0.400      0.000 
       9      0.000      0.000      0.400      0.000 
      10      0.000      0.000      0.300      0.000 
      11      0.000      0.000      0.300      0.000 
      12      0.000      0.000      0.300      0.000 
      13     -1.013     -0.709      0.473      0.000 
      14      0.000      0.000      0.300      0.000 
      15      0.000      0.000      0.300      0.000 

Improper Coeffs 

       1      0.000      -1       2 
       2      0.000      -1       2 
       3      0.000      -1       2 
       4      0.000      -1       2 
       5      0.000      -1       2 

Atoms 

     1      1      1 -0.24130000    1.000  1.00000  0.00000
     2      1      2 0.08810000   -0.519  1.00000  0.00000
     3      1      3 -0.92610000   -1.026  1.00000  1.36568
     4      1      4 0.08780000    1.377  1.00130 -1.02784
     5      1      5 0.08780000    1.397  0.11134  0.50244
     6      1      6 0.08780000    1.396  1.88778  0.50490
     7      1      7 0.07630000   -0.890  0.11722 -0.53076
     8      1      8 0.07630000   -0.887  1.88847 -0.52297
     9      1      9 0.33180000   -0.704  0.16345  1.85089
    10      1     10 0.33180000   -2.044  0.94665  1.34777

Bonds 

     1      1      2      1
     2      2      3      2
     3      3      4      1
     4      4      5      1
     5      5      6      1
     6      6      7      2
     7      7      8      2
     8      8      9      3
     9      9     10      3

Angles 

     1      1      1      2      3
     2      2      2      1      4
     3      3      2      1      5
     4      4      2      1      6
     5      5      1      2      7
     6      6      1      2      8
     7      7      2      3      9
     8      8      2      3     10
     9      9      3      2      7
    10     10      4      1      5
    11     11      5      1      6
    12     12      9      3     10
    13     13      3      2      8
    14     14      4      1      6
    15     15      7      2      8

Dihedrals

     1      1      4      1      2      3 
     2      2      9      3      2      1 
     3      3      5      1      2      3 
     4      4     10      3      2      1 
     5      5      8      2      1      6 
     6      6     10      3      2      8 
     7      7     10      3      2      7 
     8      8      9      3      2      8 
     9      9      9      3      2      7 
    10     10      7      2      1      5 
    11     11      8      2      1      4 
    12     12      8      2      1      5 
    13     13      6      1      2      3 
    14     14      7      2      1      6 
    15     15      7      2      1      4 

Impropers

     1      1      1      2      4      5 
     2      2      1      2      4      6 
     3      3      2      1      3      7 
     4      4      2      1      3      8 
     5      5      3      9     10      2 

