#C2_anion

8 atoms
3 atom types

7 bonds
3 bond types

12 angles
4 angle types

9 dihedrals
2 dihedral types

4 impropers
1 improper types

-1.13195  48.86805  xlo xhi
0  50.11194  ylo yhi
-1.03156  48.96844  zlo zhi

Masses

1  12.011
2  32.06
3  1.008

Pair Coeffs

1  0.066  3.5
2  0.355  3.55
3  0.03  2.5

Bond Coeffs

1  268.0  1.529
2  340.0  1.77
3  340.0  1.09

Angle Coeffs

1  50.0  108.6
2  37.5  110.7
3  33.0  107.8
4  35.0  109.5

Dihedral Coeffs

1  0.0  0.0  0.452  0.0
2  0.0  0.0  0.3  0.0

Improper Coeffs

1  0.0  -1.0  2.0

Atoms # full

1  1  1  -0.1894   1   1   0
2  1  1  -0.089  -0.524   1   0
3  1  2  -0.9033  -1.132   1   1.72478
4  1  3   0.0417   1.37   0.9987  -1.03156
5  1  3   0.0417   1.409   0.11194   0.49567
6  1  3   0.0417   1.409   1.88931   0.49342
7  1  3   0.0283  -0.868   0.12515  -0.56464
8  1  3   0.0283  -0.868   1.87483  -0.56463

Bonds

1  1  2  1
2  2  3  2
3  3  4  1
4  3  5  1
5  3  6  1
6  3  7  2
7  3  8  2

Angles

1  1  1  2  3
2  2  2  1  4
3  2  2  1  5
4  2  2  1  6
5  2  1  2  7
6  2  1  2  8
7  3  4  1  5
8  3  5  1  6
9  4  3  2  7
10  4  3  2  8
11  3  4  1  6
12  3  7  2  8

Dihedrals

1  1  4  1  2  3
2  1  5  1  2  3
3  2  8  2  1  6
4  2  7  2  1  5
5  2  8  2  1  4
6  2  8  2  1  5
7  1  6  1  2  3
8  2  7  2  1  6
9  2  7  2  1  4

Impropers

1  1  1  2  4  5
2  1  1  2  4  6
3  1  2  1  3  7
4  1  2  1  3  8
