LAMMPS data file Created by LigParGen - (Written by Leela S. Dodda)

       8 atoms
       7 bonds
      12 angles
       9 dihedrals
       4 impropers
 
       8 atom types
       7 bond types
      12 angle types
       9 dihedral types
       4 improper types
 
   -1.131950    48.868050 xlo xhi
    0.111940    50.111940 ylo yhi
   -1.031560    48.968440 zlo zhi

Masses

       1     12.011  
       2     12.011  
       3     32.060  
       4      1.008  
       5      1.008  
       6      1.008  
       7      1.008  
       8      1.008  

Pair Coeffs 

       1      0.066  3.5000000 
       2      0.066  3.5000000 
       3      0.355  3.5500000 
       4      0.030  2.5000000 
       5      0.030  2.5000000 
       6      0.030  2.5000000 
       7      0.030  2.5000000 
       8      0.030  2.5000000 

Bond Coeffs 

       1   268.0000     1.5290 
       2   340.0000     1.7700 
       3   340.0000     1.0900 
       4   340.0000     1.0900 
       5   340.0000     1.0900 
       6   340.0000     1.0900 
       7   340.0000     1.0900 

Angle Coeffs 

       1     50.000    108.600
       2     37.500    110.700
       3     37.500    110.700
       4     37.500    110.700
       5     37.500    110.700
       6     37.500    110.700
       7     33.000    107.800
       8     33.000    107.800
       9     35.000    109.500
      10     35.000    109.500
      11     33.000    107.800
      12     33.000    107.800

Dihedral Coeffs  

       1      0.000      0.000      0.452      0.000 
       2      0.000      0.000      0.452      0.000 
       3      0.000      0.000      0.300      0.000 
       4      0.000      0.000      0.300      0.000 
       5      0.000      0.000      0.300      0.000 
       6      0.000      0.000      0.300      0.000 
       7      0.000      0.000      0.452      0.000 
       8      0.000      0.000      0.300      0.000 
       9      0.000      0.000      0.300      0.000 

Improper Coeffs 

       1      0.000      -1       2 
       2      0.000      -1       2 
       3      0.000      -1       2 
       4      0.000      -1       2 

Atoms 

     1      1      1 -0.18940000    1.000  1.00000  0.00000
     2      1      2 -0.08900000   -0.524  1.00000  0.00000
     3      1      3 -0.90330000   -1.132  1.00000  1.72478
     4      1      4 0.04170000    1.370  0.99870 -1.03156
     5      1      5 0.04170000    1.409  0.11194  0.49567
     6      1      6 0.04170000    1.409  1.88931  0.49342
     7      1      7 0.02830000   -0.868  0.12515 -0.56464
     8      1      8 0.02830000   -0.868  1.87483 -0.56463

Bonds 

     1      1      2      1
     2      2      3      2
     3      3      4      1
     4      4      5      1
     5      5      6      1
     6      6      7      2
     7      7      8      2

Angles 

     1      1      1      2      3
     2      2      2      1      4
     3      3      2      1      5
     4      4      2      1      6
     5      5      1      2      7
     6      6      1      2      8
     7      7      4      1      5
     8      8      5      1      6
     9      9      3      2      7
    10     10      3      2      8
    11     11      4      1      6
    12     12      7      2      8

Dihedrals

     1      1      4      1      2      3 
     2      2      5      1      2      3 
     3      3      8      2      1      6 
     4      4      7      2      1      5 
     5      5      8      2      1      4 
     6      6      8      2      1      5 
     7      7      6      1      2      3 
     8      8      7      2      1      6 
     9      9      7      2      1      4 

Impropers

     1      1      1      2      4      5 
     2      2      1      2      4      6 
     3      3      2      1      3      7 
     4      4      2      1      3      8 

