LAMMPS data file Created by LigParGen - (Written by Leela S. Dodda)

       9 atoms
       8 bonds
      13 angles
      12 dihedrals
       4 impropers
 
       9 atom types
       8 bond types
      13 angle types
      12 dihedral types
       4 improper types
 
   -1.158040    48.841960 xlo xhi
   -0.176250    49.823750 ylo yhi
   -1.030110    48.969890 zlo zhi

Masses

       1     12.011  
       2     12.011  
       3     32.060  
       4      1.008  
       5      1.008  
       6      1.008  
       7      1.008  
       8      1.008  
       9      1.008  

Pair Coeffs 

       1      0.066  3.5000000 
       2      0.066  3.5000000 
       3      0.425  3.6000000 
       4      0.030  2.5000000 
       5      0.030  2.5000000 
       6      0.030  2.5000000 
       7      0.030  2.5000000 
       8      0.030  2.5000000 
       9      0.000  0.0000000 

Bond Coeffs 

       1   268.0000     1.5290 
       2   222.0000     1.8100 
       3   340.0000     1.0900 
       4   340.0000     1.0900 
       5   340.0000     1.0900 
       6   340.0000     1.0900 
       7   340.0000     1.0900 
       8   274.0000     1.3360 

Angle Coeffs 

       1     50.000    108.600
       2     37.500    110.700
       3     37.500    110.700
       4     37.500    110.700
       5     37.500    110.700
       6     37.500    110.700
       7     44.000     96.000
       8     33.000    107.800
       9     33.000    107.800
      10     35.000    109.500
      11     35.000    109.500
      12     33.000    107.800
      13     33.000    107.800

Dihedral Coeffs  

       1      0.000      0.000      0.452      0.000 
       2     -0.759     -0.282      0.680      0.000 
       3      0.000      0.000      0.452      0.000 
       4      0.000      0.000      0.300      0.000 
       5      0.000      0.000      0.480      0.000 
       6      0.000      0.000      0.480      0.000 
       7      0.000      0.000      0.300      0.000 
       8      0.000      0.000      0.300      0.000 
       9      0.000      0.000      0.300      0.000 
      10      0.000      0.000      0.452      0.000 
      11      0.000      0.000      0.300      0.000 
      12      0.000      0.000      0.300      0.000 

Improper Coeffs 

       1      0.000      -1       2 
       2      0.000      -1       2 
       3      0.000      -1       2 
       4      0.000      -1       2 

Atoms 

     1      1      1 -0.24540000    1.000  1.00000  0.00000
     2      1      2 0.01220000   -0.517  1.00000  0.00000
     3      1      3 -0.44120000   -1.158  1.00000  1.69717
     4      1      4 0.09310000    1.372  1.00130 -1.03011
     5      1      5 0.09310000    1.401  0.10935  0.49550
     6      1      6 0.09310000    1.401  1.88934  0.49772
     7      1      7 0.12500000   -0.895  0.11449 -0.51985
     8      1      8 0.12500000   -0.894  1.88769 -0.51699
     9      1      9 0.14520000   -0.628 -0.17625  2.06275

Bonds 

     1      1      2      1
     2      2      3      2
     3      3      4      1
     4      4      5      1
     5      5      6      1
     6      6      7      2
     7      7      8      2
     8      8      9      3

Angles 

     1      1      1      2      3
     2      2      2      1      4
     3      3      2      1      5
     4      4      2      1      6
     5      5      1      2      7
     6      6      1      2      8
     7      7      2      3      9
     8      8      4      1      5
     9      9      5      1      6
    10     10      3      2      7
    11     11      3      2      8
    12     12      4      1      6
    13     13      7      2      8

Dihedrals

     1      1      4      1      2      3 
     2      2      9      3      2      1 
     3      3      5      1      2      3 
     4      4      8      2      1      6 
     5      5      9      3      2      8 
     6      6      9      3      2      7 
     7      7      7      2      1      5 
     8      8      8      2      1      4 
     9      9      8      2      1      5 
    10     10      6      1      2      3 
    11     11      7      2      1      6 
    12     12      7      2      1      4 

Impropers

     1      1      1      2      4      5 
     2      2      1      2      4      6 
     3      3      2      1      3      7 
     4      4      2      1      3      8 

