#C2_thiol

9 atoms
4 atom types

8 bonds
4 bond types

13 angles
5 angle types

12 dihedrals
4 dihedral types

4 impropers
1 improper types

-1.15804  48.84196  xlo xhi
-0.17625  49.82375  ylo yhi
-1.03011  48.96989  zlo zhi

Masses

1  12.011
2  32.06
3  1.008
4  1.008

Pair Coeffs

1  0.066  3.5
2  0.425  3.6
3  0.03  2.5
4  0.0  0.0

Bond Coeffs

1  268.0  1.529
2  222.0  1.81
3  340.0  1.09
4  274.0  1.336

Angle Coeffs

1  50.0  108.6
2  37.5  110.7
3  44.0  96.0
4  33.0  107.8
5  35.0  109.5

Dihedral Coeffs

1  0.0  0.0  0.452  0.0
2  -0.759  -0.282  0.68  0.0
3  0.0  0.0  0.3  0.0
4  0.0  0.0  0.48  0.0

Improper Coeffs

1  0.0  -1.0  2.0

Atoms # full

1  1  1  -0.2454   1   1   0
2  1  1   0.0122  -0.517   1   0
3  1  2  -0.4412  -1.158   1   1.69717
4  1  3   0.0931   1.372   1.0013  -1.03011
5  1  3   0.0931   1.401   0.10935   0.4955
6  1  3   0.0931   1.401   1.88934   0.49772
7  1  3   0.125  -0.895   0.11449  -0.51985
8  1  3   0.125  -0.894   1.88769  -0.51699
9  1  4   0.1452  -0.628  -0.17625   2.06275

Bonds

1  1  2  1
2  2  3  2
3  3  4  1
4  3  5  1
5  3  6  1
6  3  7  2
7  3  8  2
8  4  9  3

Angles

1  1  1  2  3
2  2  2  1  4
3  2  2  1  5
4  2  2  1  6
5  2  1  2  7
6  2  1  2  8
7  3  2  3  9
8  4  4  1  5
9  4  5  1  6
10  5  3  2  7
11  5  3  2  8
12  4  4  1  6
13  4  7  2  8

Dihedrals

1  1  4  1  2  3
2  2  9  3  2  1
3  1  5  1  2  3
4  3  8  2  1  6
5  4  9  3  2  8
6  4  9  3  2  7
7  3  7  2  1  5
8  3  8  2  1  4
9  3  8  2  1  5
10  1  6  1  2  3
11  3  7  2  1  6
12  3  7  2  1  4

Impropers

1  1  1  2  4  5
2  1  1  2  4  6
3  1  2  1  3  7
4  1  2  1  3  8
