LAMMPS data file Created by LigParGen - (Written by Leela S. Dodda)

      33 atoms
      32 bonds
      61 angles
      84 dihedrals
      20 impropers
 
      33 atom types
      32 bond types
      61 angle types
      84 dihedral types
      20 improper types
 
   -9.461170    40.538830 xlo xhi
   -0.185120    49.814880 ylo yhi
   -1.027350    48.972650 zlo zhi

Masses

       1     12.011  
       2     12.011  
       3     12.011  
       4     12.011  
       5     12.011  
       6     12.011  
       7     12.011  
       8     12.011  
       9     12.011  
      10     12.011  
      11     32.060  
      12      1.008  
      13      1.008  
      14      1.008  
      15      1.008  
      16      1.008  
      17      1.008  
      18      1.008  
      19      1.008  
      20      1.008  
      21      1.008  
      22      1.008  
      23      1.008  
      24      1.008  
      25      1.008  
      26      1.008  
      27      1.008  
      28      1.008  
      29      1.008  
      30      1.008  
      31      1.008  
      32      1.008  
      33      1.008  

Pair Coeffs 

       1      0.066  3.5000000 
       2      0.066  3.5000000 
       3      0.066  3.5000000 
       4      0.066  3.5000000 
       5      0.066  3.5000000 
       6      0.066  3.5000000 
       7      0.066  3.5000000 
       8      0.066  3.5000000 
       9      0.066  3.5000000 
      10      0.066  3.5000000 
      11      0.425  3.6000000 
      12      0.030  2.5000000 
      13      0.030  2.5000000 
      14      0.030  2.5000000 
      15      0.030  2.5000000 
      16      0.030  2.5000000 
      17      0.030  2.5000000 
      18      0.030  2.5000000 
      19      0.030  2.5000000 
      20      0.030  2.5000000 
      21      0.030  2.5000000 
      22      0.030  2.5000000 
      23      0.030  2.5000000 
      24      0.030  2.5000000 
      25      0.030  2.5000000 
      26      0.030  2.5000000 
      27      0.030  2.5000000 
      28      0.030  2.5000000 
      29      0.030  2.5000000 
      30      0.030  2.5000000 
      31      0.030  2.5000000 
      32      0.030  2.5000000 
      33      0.000  0.0000000 

Bond Coeffs 

       1   268.0000     1.5290 
       2   268.0000     1.5290 
       3   268.0000     1.5290 
       4   268.0000     1.5290 
       5   268.0000     1.5290 
       6   268.0000     1.5290 
       7   268.0000     1.5290 
       8   268.0000     1.5290 
       9   268.0000     1.5290 
      10   222.0000     1.8100 
      11   340.0000     1.0900 
      12   340.0000     1.0900 
      13   340.0000     1.0900 
      14   340.0000     1.0900 
      15   340.0000     1.0900 
      16   340.0000     1.0900 
      17   340.0000     1.0900 
      18   340.0000     1.0900 
      19   340.0000     1.0900 
      20   340.0000     1.0900 
      21   340.0000     1.0900 
      22   340.0000     1.0900 
      23   340.0000     1.0900 
      24   340.0000     1.0900 
      25   340.0000     1.0900 
      26   340.0000     1.0900 
      27   340.0000     1.0900 
      28   340.0000     1.0900 
      29   340.0000     1.0900 
      30   340.0000     1.0900 
      31   340.0000     1.0900 
      32   274.0000     1.3360 

Angle Coeffs 

       1     58.350    112.700
       2     58.350    112.700
       3     58.350    112.700
       4     58.350    112.700
       5     58.350    112.700
       6     58.350    112.700
       7     58.350    112.700
       8     58.350    112.700
       9     50.000    108.600
      10     37.500    110.700
      11     37.500    110.700
      12     37.500    110.700
      13     37.500    110.700
      14     37.500    110.700
      15     37.500    110.700
      16     37.500    110.700
      17     37.500    110.700
      18     37.500    110.700
      19     37.500    110.700
      20     37.500    110.700
      21     37.500    110.700
      22     37.500    110.700
      23     37.500    110.700
      24     37.500    110.700
      25     37.500    110.700
      26     37.500    110.700
      27     37.500    110.700
      28     37.500    110.700
      29     37.500    110.700
      30     37.500    110.700
      31     44.000     96.000
      32     37.500    110.700
      33     37.500    110.700
      34     33.000    107.800
      35     37.500    110.700
      36     33.000    107.800
      37     37.500    110.700
      38     33.000    107.800
      39     33.000    107.800
      40     37.500    110.700
      41     33.000    107.800
      42     37.500    110.700
      43     35.000    109.500
      44     37.500    110.700
      45     33.000    107.800
      46     37.500    110.700
      47     33.000    107.800
      48     37.500    110.700
      49     37.500    110.700
      50     37.500    110.700
      51     33.000    107.800
      52     37.500    110.700
      53     33.000    107.800
      54     35.000    109.500
      55     37.500    110.700
      56     37.500    110.700
      57     33.000    107.800
      58     33.000    107.800
      59     37.500    110.700
      60     33.000    107.800
      61     37.500    110.700

Dihedral Coeffs  

       1      1.300     -0.200      0.200      0.000 
       2      1.300     -0.200      0.200      0.000 
       3      1.300     -0.200      0.200      0.000 
       4      1.300     -0.200      0.200      0.000 
       5      1.300     -0.200      0.200      0.000 
       6      1.300     -0.200      0.200      0.000 
       7      1.300     -0.200      0.200      0.000 
       8      1.262     -0.198      0.465      0.000 
       9      0.000      0.000      0.300      0.000 
      10     -0.759     -0.282      0.680      0.000 
      11      0.000      0.000      0.300      0.000 
      12      0.000      0.000      0.300      0.000 
      13      0.000      0.000      0.300      0.000 
      14      0.000      0.000      0.300      0.000 
      15      0.000      0.000      0.300      0.000 
      16      0.000      0.000      0.300      0.000 
      17      0.000      0.000      0.300      0.000 
      18      0.000      0.000      0.300      0.000 
      19      0.000      0.000      0.300      0.000 
      20      0.000      0.000      0.300      0.000 
      21      0.000      0.000      0.300      0.000 
      22      0.000      0.000      0.300      0.000 
      23      0.000      0.000      0.300      0.000 
      24      0.000      0.000      0.300      0.000 
      25      0.000      0.000      0.300      0.000 
      26      0.000      0.000      0.480      0.000 
      27      0.000      0.000      0.300      0.000 
      28      0.000      0.000      0.300      0.000 
      29      0.000      0.000      0.300      0.000 
      30      0.000      0.000      0.300      0.000 
      31      0.000      0.000      0.300      0.000 
      32      0.000      0.000      0.300      0.000 
      33      0.000      0.000      0.300      0.000 
      34      0.000      0.000      0.300      0.000 
      35      0.000      0.000      0.300      0.000 
      36      0.000      0.000      0.300      0.000 
      37      0.000      0.000      0.300      0.000 
      38      0.000      0.000      0.300      0.000 
      39      0.000      0.000      0.300      0.000 
      40      0.000      0.000      0.300      0.000 
      41      0.000      0.000      0.300      0.000 
      42      0.000      0.000      0.300      0.000 
      43      0.000      0.000      0.300      0.000 
      44      0.000      0.000      0.300      0.000 
      45      0.000      0.000      0.300      0.000 
      46      0.000      0.000      0.300      0.000 
      47      0.000      0.000      0.452      0.000 
      48      0.000      0.000      0.300      0.000 
      49      0.000      0.000      0.300      0.000 
      50      0.000      0.000      0.300      0.000 
      51      0.000      0.000      0.300      0.000 
      52      0.000      0.000      0.452      0.000 
      53      0.000      0.000      0.300      0.000 
      54      0.000      0.000      0.300      0.000 
      55      0.000      0.000      0.300      0.000 
      56      0.000      0.000      0.300      0.000 
      57      0.000      0.000      0.300      0.000 
      58      0.000      0.000      0.300      0.000 
      59      0.000      0.000      0.300      0.000 
      60      0.000      0.000      0.300      0.000 
      61      0.000      0.000      0.300      0.000 
      62      0.000      0.000      0.300      0.000 
      63      0.000      0.000      0.300      0.000 
      64      0.000      0.000      0.300      0.000 
      65      0.000      0.000      0.300      0.000 
      66      0.000      0.000      0.300      0.000 
      67      0.000      0.000      0.300      0.000 
      68      0.000      0.000      0.480      0.000 
      69      0.000      0.000      0.300      0.000 
      70      0.000      0.000      0.300      0.000 
      71      0.000      0.000      0.300      0.000 
      72      0.000      0.000      0.300      0.000 
      73      0.000      0.000      0.300      0.000 
      74      0.000      0.000      0.300      0.000 
      75      0.000      0.000      0.300      0.000 
      76      0.000      0.000      0.300      0.000 
      77      0.000      0.000      0.300      0.000 
      78      0.000      0.000      0.300      0.000 
      79      0.000      0.000      0.300      0.000 
      80      0.000      0.000      0.300      0.000 
      81      0.000      0.000      0.300      0.000 
      82      0.000      0.000      0.300      0.000 
      83      0.000      0.000      0.300      0.000 
      84      0.000      0.000      0.300      0.000 

Improper Coeffs 

       1      0.000      -1       2 
       2      0.000      -1       2 
       3      0.000      -1       2 
       4      0.000      -1       2 
       5      0.000      -1       2 
       6      0.000      -1       2 
       7      0.000      -1       2 
       8      0.000      -1       2 
       9      0.000      -1       2 
      10      0.000      -1       2 
      11      0.000      -1       2 
      12      0.000      -1       2 
      13      0.000      -1       2 
      14      0.000      -1       2 
      15      0.000      -1       2 
      16      0.000      -1       2 
      17      0.000      -1       2 
      18      0.000      -1       2 
      19      0.000      -1       2 
      20      0.000      -1       2 

Atoms 

     1      1      1 -0.23900000    1.000  1.00000  0.00000
     2      1      2 -0.17930000   -0.520  1.00000  0.00000
     3      1      3 -0.17820000   -1.077  1.00000  1.42314
     4      1      4 -0.17880000   -2.606  1.00180  1.42314
     5      1      5 -0.17900000   -3.157  0.99999  2.84977
     6      1      6 -0.17850000   -4.687  0.99998  2.85633
     7      1      7 -0.17830000   -5.231  0.99636  4.28525
     8      1      8 -0.17990000   -6.761  0.99454  4.29672
     9      1      9 -0.18370000   -7.303  0.98911  5.72823
    10      1     10 0.01260000   -8.829  0.98551  5.73314
    11      1     11 -0.44160000   -9.461  0.98124  7.43522
    12      1     12 0.08100000    1.378  0.99870 -1.02735
    13      1     13 0.08100000    1.391  0.11242  0.50750
    14      1     14 0.08100000    1.391  1.88884  0.50524
    15      1     15 0.08840000   -0.879  0.11670 -0.54096
    16      1     16 0.08840000   -0.879  1.88333 -0.54099
    17      1     17 0.08960000   -0.709  1.88212  1.96091
    18      1     18 0.08960000   -0.711  0.11648  1.96012
    19      1     19 0.08950000   -2.975  0.12010  0.88506
    20      1     20 0.08950000   -2.973  1.88630  0.88806
    21      1     21 0.08980000   -2.788  1.88211  3.38667
    22      1     22 0.08980000   -2.788  0.11647  3.38445
    23      1     23 0.09010000   -5.056  0.11794  2.31891
    24      1     24 0.09010000   -5.056  1.88476  2.32336
    25      1     25 0.09120000   -4.861  1.87852  4.82129
    26      1     26 0.09120000   -4.859  0.11222  4.81725
    27      1     27 0.09140000   -7.130  0.11247  3.75976
    28      1     28 0.09140000   -7.132  1.87932  3.76566
    29      1     29 0.10170000   -6.927  1.87342  6.25816
    30      1     30 0.10170000   -6.922  0.10329  6.25202
    31      1     31 0.12590000   -9.214  0.10018  5.21735
    32      1     32 0.12590000   -9.217  1.87283  5.22312
    33      1     33 0.14530000   -8.910 -0.18512  7.80213

Bonds 

     1      1      2      1
     2      2      3      2
     3      3      4      3
     4      4      5      4
     5      5      6      5
     6      6      7      6
     7      7      8      7
     8      8      9      8
     9      9     10      9
    10     10     11     10
    11     11     12      1
    12     12     13      1
    13     13     14      1
    14     14     15      2
    15     15     16      2
    16     16     17      3
    17     17     18      3
    18     18     19      4
    19     19     20      4
    20     20     21      5
    21     21     22      5
    22     22     23      6
    23     23     24      6
    24     24     25      7
    25     25     26      7
    26     26     27      8
    27     27     28      8
    28     28     29      9
    29     29     30      9
    30     30     31     10
    31     31     32     10
    32     32     33     11

Angles 

     1      1      1      2      3
     2      2      2      3      4
     3      3      3      4      5
     4      4      4      5      6
     5      5      5      6      7
     6      6      6      7      8
     7      7      7      8      9
     8      8      8      9     10
     9      9      9     10     11
    10     10      2      1     12
    11     11      2      1     13
    12     12      2      1     14
    13     13      1      2     15
    14     14      1      2     16
    15     15      2      3     17
    16     16      2      3     18
    17     17      3      4     19
    18     18      3      4     20
    19     19      4      5     21
    20     20      4      5     22
    21     21      5      6     23
    22     22      5      6     24
    23     23      6      7     25
    24     24      6      7     26
    25     25      7      8     27
    26     26      7      8     28
    27     27      8      9     29
    28     28      8      9     30
    29     29      9     10     31
    30     30      9     10     32
    31     31     10     11     33
    32     32      9      8     28
    33     33     10      9     30
    34     34     29      9     30
    35     35     10      9     29
    36     36     19      4     20
    37     37      3      2     15
    38     38     13      1     14
    39     39     23      6     24
    40     40      6      5     22
    41     41     21      5     22
    42     42      7      6     23
    43     43     11     10     32
    44     44      8      7     26
    45     45     12      1     14
    46     46      3      2     16
    47     47     27      8     28
    48     48      4      3     18
    49     49      7      6     24
    50     50      8      7     25
    51     51     12      1     13
    52     52      5      4     19
    53     53     25      7     26
    54     54     11     10     31
    55     55      6      5     21
    56     56      5      4     20
    57     57     31     10     32
    58     58     15      2     16
    59     59      4      3     17
    60     60     17      3     18
    61     61      9      8     27

Dihedrals

     1      1      4      3      2      1 
     2      2      5      4      3      2 
     3      3      6      5      4      3 
     4      4      7      6      5      4 
     5      5      8      7      6      5 
     6      6      9      8      7      6 
     7      7     10      9      8      7 
     8      8     11     10      9      8 
     9      9     12      1      2      3 
    10     10     33     11     10      9 
    11     11     16      2      3      4 
    12     12     23      6      7      8 
    13     13     21      5      4     19 
    14     14     22      5      4      3 
    15     15     18      3      2      1 
    16     16     28      8      9     10 
    17     17     31     10      9     29 
    18     18     25      7      6     23 
    19     19     15      2      1     12 
    20     20     17      3      2     16 
    21     21     18      3      2     15 
    22     22     25      7      6      5 
    23     23     31     10      9     30 
    24     24     22      5      4     20 
    25     25     23      6      5     21 
    26     26     33     11     10     31 
    27     27     20      4      5      6 
    28     28     15      2      3      4 
    29     29     24      6      5     21 
    30     30     18      3      4      5 
    31     31     21      5      4     20 
    32     32     22      5      4     19 
    33     33     24      6      5     22 
    34     34     30      9      8     28 
    35     35     26      7      8      9 
    36     36     25      7      6     24 
    37     37     32     10      9      8 
    38     38     24      6      5      4 
    39     39     20      4      3     17 
    40     40     31     10      9      8 
    41     41     15      2      1     14 
    42     42     20      4      3     18 
    43     43     13      1      2      3 
    44     44     19      4      3     17 
    45     45     27      8      7     25 
    46     46     19      4      3     18 
    47     47     30      9     10     11 
    48     48     19      4      3      2 
    49     49     22      5      6      7 
    50     50     23      6      5      4 
    51     51     17      3      2     15 
    52     52     29      9     10     11 
    53     53     17      3      4      5 
    54     54     20      4      3      2 
    55     55     17      3      2      1 
    56     56     28      8      7     25 
    57     57     27      8      7      6 
    58     58     26      7      6      5 
    59     59     30      9      8     27 
    60     60     16      2      1     13 
    61     61     26      7      6     24 
    62     62     19      4      5      6 
    63     63     14      1      2      3 
    64     64     21      5      6      7 
    65     65     21      5      4      3 
    66     66     30      9      8      7 
    67     67     23      6      5     22 
    68     68     33     11     10     32 
    69     69     27      8      9     10 
    70     70     32     10      9     29 
    71     71     29      9      8      7 
    72     72     18      3      2     16 
    73     73     29      9      8     27 
    74     74     28      8      7     26 
    75     75     29      9      8     28 
    76     76     28      8      7      6 
    77     77     25      7      8      9 
    78     78     16      2      1     14 
    79     79     26      7      6     23 
    80     80     32     10      9     30 
    81     81     16      2      1     12 
    82     82     27      8      7     26 
    83     83     15      2      1     13 
    84     84     24      6      7      8 

Impropers

     1      1      1      2     12     13 
     2      2      1      2     12     14 
     3      3      2      1      3     15 
     4      4      2      1      3     16 
     5      5      3     17      2      4 
     6      6      3     18      4      2 
     7      7      4     19      5      3 
     8      8      4      3     20      5 
     9      9      5      4     21      6 
    10     10      5      4     22      6 
    11     11      6      7      5     23 
    12     12      6      5      7     24 
    13     13      7     25      6      8 
    14     14      7     26      6      8 
    15     15      8      9     27      7 
    16     16      8      9     28      7 
    17     17      9     10     29      8 
    18     18      9     10     30      8 
    19     19     10      9     11     31 
    20     20     10      9     11     32 

