#C10_thiol

33 atoms
4 atom types

32 bonds
4 bond types

61 angles
6 angle types

84 dihedrals
6 dihedral types

20 impropers
1 improper types

-9.46117  40.53883  xlo xhi
-0.18512  49.81488  ylo yhi
-1.02735  48.97265  zlo zhi

Masses

1  12.011
2  32.06
3  1.008
4  1.008

Pair Coeffs

1  0.066  3.5
2  0.425  3.6
3  0.03  2.5
4  0.0  0.0

Bond Coeffs

1  268.0  1.529
2  222.0  1.81
3  340.0  1.09
4  274.0  1.336

Angle Coeffs

1  58.35  112.7
2  50.0  108.6
3  37.5  110.7
4  44.0  96.0
5  33.0  107.8
6  35.0  109.5

Dihedral Coeffs

1  1.3  -0.2  0.2  0.0
2  1.262  -0.198  0.465  0.0
3  0.0  0.0  0.3  0.0
4  -0.759  -0.282  0.68  0.0
5  0.0  0.0  0.48  0.0
6  0.0  0.0  0.452  0.0

Improper Coeffs

1  0.0  -1.0  2.0

Atoms # full

1  1  1  -0.239   1   1   0
2  1  1  -0.1793  -0.52   1   0
3  1  1  -0.1782  -1.077   1   1.42314
4  1  1  -0.1788  -2.606   1.0018   1.42314
5  1  1  -0.179  -3.157   0.99999   2.84977
6  1  1  -0.1785  -4.687   0.99998   2.85633
7  1  1  -0.1783  -5.231   0.99636   4.28525
8  1  1  -0.1799  -6.761   0.99454   4.29672
9  1  1  -0.1837  -7.303   0.98911   5.72823
10  1  1   0.0126  -8.829   0.98551   5.73314
11  1  2  -0.4416  -9.461   0.98124   7.43522
12  1  3   0.081   1.378   0.9987  -1.02735
13  1  3   0.081   1.391   0.11242   0.5075
14  1  3   0.081   1.391   1.88884   0.50524
15  1  3   0.0884  -0.879   0.1167  -0.54096
16  1  3   0.0884  -0.879   1.88333  -0.54099
17  1  3   0.0896  -0.709   1.88212   1.96091
18  1  3   0.0896  -0.711   0.11648   1.96012
19  1  3   0.0895  -2.975   0.1201   0.88506
20  1  3   0.0895  -2.973   1.8863   0.88806
21  1  3   0.0898  -2.788   1.88211   3.38667
22  1  3   0.0898  -2.788   0.11647   3.38445
23  1  3   0.0901  -5.056   0.11794   2.31891
24  1  3   0.0901  -5.056   1.88476   2.32336
25  1  3   0.0912  -4.861   1.87852   4.82129
26  1  3   0.0912  -4.859   0.11222   4.81725
27  1  3   0.0914  -7.13   0.11247   3.75976
28  1  3   0.0914  -7.132   1.87932   3.76566
29  1  3   0.1017  -6.927   1.87342   6.25816
30  1  3   0.1017  -6.922   0.10329   6.25202
31  1  3   0.1259  -9.214   0.10018   5.21735
32  1  3   0.1259  -9.217   1.87283   5.22312
33  1  4   0.1453  -8.91  -0.18512   7.80213

Bonds

1  1  2  1
2  1  3  2
3  1  4  3
4  1  5  4
5  1  6  5
6  1  7  6
7  1  8  7
8  1  9  8
9  1  10  9
10  2  11  10
11  3  12  1
12  3  13  1
13  3  14  1
14  3  15  2
15  3  16  2
16  3  17  3
17  3  18  3
18  3  19  4
19  3  20  4
20  3  21  5
21  3  22  5
22  3  23  6
23  3  24  6
24  3  25  7
25  3  26  7
26  3  27  8
27  3  28  8
28  3  29  9
29  3  30  9
30  3  31  10
31  3  32  10
32  4  33  11

Angles

1  1  1  2  3
2  1  2  3  4
3  1  3  4  5
4  1  4  5  6
5  1  5  6  7
6  1  6  7  8
7  1  7  8  9
8  1  8  9  10
9  2  9  10  11
10  3  2  1  12
11  3  2  1  13
12  3  2  1  14
13  3  1  2  15
14  3  1  2  16
15  3  2  3  17
16  3  2  3  18
17  3  3  4  19
18  3  3  4  20
19  3  4  5  21
20  3  4  5  22
21  3  5  6  23
22  3  5  6  24
23  3  6  7  25
24  3  6  7  26
25  3  7  8  27
26  3  7  8  28
27  3  8  9  29
28  3  8  9  30
29  3  9  10  31
30  3  9  10  32
31  4  10  11  33
32  3  9  8  28
33  3  10  9  30
34  5  29  9  30
35  3  10  9  29
36  5  19  4  20
37  3  3  2  15
38  5  13  1  14
39  5  23  6  24
40  3  6  5  22
41  5  21  5  22
42  3  7  6  23
43  6  11  10  32
44  3  8  7  26
45  5  12  1  14
46  3  3  2  16
47  5  27  8  28
48  3  4  3  18
49  3  7  6  24
50  3  8  7  25
51  5  12  1  13
52  3  5  4  19
53  5  25  7  26
54  6  11  10  31
55  3  6  5  21
56  3  5  4  20
57  5  31  10  32
58  5  15  2  16
59  3  4  3  17
60  5  17  3  18
61  3  9  8  27

Dihedrals

1  1  4  3  2  1
2  1  5  4  3  2
3  1  6  5  4  3
4  1  7  6  5  4
5  1  8  7  6  5
6  1  9  8  7  6
7  1  10  9  8  7
8  2  11  10  9  8
9  3  12  1  2  3
10  4  33  11  10  9
11  3  16  2  3  4
12  3  23  6  7  8
13  3  21  5  4  19
14  3  22  5  4  3
15  3  18  3  2  1
16  3  28  8  9  10
17  3  31  10  9  29
18  3  25  7  6  23
19  3  15  2  1  12
20  3  17  3  2  16
21  3  18  3  2  15
22  3  25  7  6  5
23  3  31  10  9  30
24  3  22  5  4  20
25  3  23  6  5  21
26  5  33  11  10  31
27  3  20  4  5  6
28  3  15  2  3  4
29  3  24  6  5  21
30  3  18  3  4  5
31  3  21  5  4  20
32  3  22  5  4  19
33  3  24  6  5  22
34  3  30  9  8  28
35  3  26  7  8  9
36  3  25  7  6  24
37  3  32  10  9  8
38  3  24  6  5  4
39  3  20  4  3  17
40  3  31  10  9  8
41  3  15  2  1  14
42  3  20  4  3  18
43  3  13  1  2  3
44  3  19  4  3  17
45  3  27  8  7  25
46  3  19  4  3  18
47  6  30  9  10  11
48  3  19  4  3  2
49  3  22  5  6  7
50  3  23  6  5  4
51  3  17  3  2  15
52  6  29  9  10  11
53  3  17  3  4  5
54  3  20  4  3  2
55  3  17  3  2  1
56  3  28  8  7  25
57  3  27  8  7  6
58  3  26  7  6  5
59  3  30  9  8  27
60  3  16  2  1  13
61  3  26  7  6  24
62  3  19  4  5  6
63  3  14  1  2  3
64  3  21  5  6  7
65  3  21  5  4  3
66  3  30  9  8  7
67  3  23  6  5  22
68  5  33  11  10  32
69  3  27  8  9  10
70  3  32  10  9  29
71  3  29  9  8  7
72  3  18  3  2  16
73  3  29  9  8  27
74  3  28  8  7  26
75  3  29  9  8  28
76  3  28  8  7  6
77  3  25  7  8  9
78  3  16  2  1  14
79  3  26  7  6  23
80  3  32  10  9  30
81  3  16  2  1  12
82  3  27  8  7  26
83  3  15  2  1  13
84  3  24  6  7  8

Impropers

1  1  1  2  12  13
2  1  1  2  12  14
3  1  2  1  3  15
4  1  2  1  3  16
5  1  3  17  2  4
6  1  3  18  4  2
7  1  4  19  5  3
8  1  4  3  20  5
9  1  5  4  21  6
10  1  5  4  22  6
11  1  6  7  5  23
12  1  6  5  7  24
13  1  7  25  6  8
14  1  7  26  6  8
15  1  8  9  27  7
16  1  8  9  28  7
17  1  9  10  29  8
18  1  9  10  30  8
19  1  10  9  11  31
20  1  10  9  11  32
