LAMMPS data file Created by LigParGen - (Written by Leela S. Dodda)

      32 atoms
      31 bonds
      60 angles
      81 dihedrals
      20 impropers
 
      32 atom types
      31 bond types
      60 angle types
      81 dihedral types
      20 improper types
 
   -9.452370    40.547630 xlo xhi
    0.105360    50.105360 ylo yhi
   -1.026760    48.973240 zlo zhi

Masses

       1     12.011  
       2     12.011  
       3     12.011  
       4     12.011  
       5     12.011  
       6     12.011  
       7     12.011  
       8     12.011  
       9     12.011  
      10     12.011  
      11     32.060  
      12      1.008  
      13      1.008  
      14      1.008  
      15      1.008  
      16      1.008  
      17      1.008  
      18      1.008  
      19      1.008  
      20      1.008  
      21      1.008  
      22      1.008  
      23      1.008  
      24      1.008  
      25      1.008  
      26      1.008  
      27      1.008  
      28      1.008  
      29      1.008  
      30      1.008  
      31      1.008  
      32      1.008  

Pair Coeffs 

       1      0.066  3.5000000 
       2      0.066  3.5000000 
       3      0.066  3.5000000 
       4      0.066  3.5000000 
       5      0.066  3.5000000 
       6      0.066  3.5000000 
       7      0.066  3.5000000 
       8      0.066  3.5000000 
       9      0.066  3.5000000 
      10      0.066  3.5000000 
      11      0.355  3.5500000 
      12      0.030  2.5000000 
      13      0.030  2.5000000 
      14      0.030  2.5000000 
      15      0.030  2.5000000 
      16      0.030  2.5000000 
      17      0.030  2.5000000 
      18      0.030  2.5000000 
      19      0.030  2.5000000 
      20      0.030  2.5000000 
      21      0.030  2.5000000 
      22      0.030  2.5000000 
      23      0.030  2.5000000 
      24      0.030  2.5000000 
      25      0.030  2.5000000 
      26      0.030  2.5000000 
      27      0.030  2.5000000 
      28      0.030  2.5000000 
      29      0.030  2.5000000 
      30      0.030  2.5000000 
      31      0.030  2.5000000 
      32      0.030  2.5000000 

Bond Coeffs 

       1   268.0000     1.5290 
       2   268.0000     1.5290 
       3   268.0000     1.5290 
       4   268.0000     1.5290 
       5   268.0000     1.5290 
       6   268.0000     1.5290 
       7   268.0000     1.5290 
       8   268.0000     1.5290 
       9   268.0000     1.5290 
      10   340.0000     1.7700 
      11   340.0000     1.0900 
      12   340.0000     1.0900 
      13   340.0000     1.0900 
      14   340.0000     1.0900 
      15   340.0000     1.0900 
      16   340.0000     1.0900 
      17   340.0000     1.0900 
      18   340.0000     1.0900 
      19   340.0000     1.0900 
      20   340.0000     1.0900 
      21   340.0000     1.0900 
      22   340.0000     1.0900 
      23   340.0000     1.0900 
      24   340.0000     1.0900 
      25   340.0000     1.0900 
      26   340.0000     1.0900 
      27   340.0000     1.0900 
      28   340.0000     1.0900 
      29   340.0000     1.0900 
      30   340.0000     1.0900 
      31   340.0000     1.0900 

Angle Coeffs 

       1     58.350    112.700
       2     58.350    112.700
       3     58.350    112.700
       4     58.350    112.700
       5     58.350    112.700
       6     58.350    112.700
       7     58.350    112.700
       8     58.350    112.700
       9     50.000    108.600
      10     37.500    110.700
      11     37.500    110.700
      12     37.500    110.700
      13     37.500    110.700
      14     37.500    110.700
      15     37.500    110.700
      16     37.500    110.700
      17     37.500    110.700
      18     37.500    110.700
      19     37.500    110.700
      20     37.500    110.700
      21     37.500    110.700
      22     37.500    110.700
      23     37.500    110.700
      24     37.500    110.700
      25     37.500    110.700
      26     37.500    110.700
      27     37.500    110.700
      28     37.500    110.700
      29     37.500    110.700
      30     37.500    110.700
      31     37.500    110.700
      32     37.500    110.700
      33     33.000    107.800
      34     37.500    110.700
      35     33.000    107.800
      36     37.500    110.700
      37     33.000    107.800
      38     33.000    107.800
      39     37.500    110.700
      40     33.000    107.800
      41     37.500    110.700
      42     35.000    109.500
      43     37.500    110.700
      44     33.000    107.800
      45     37.500    110.700
      46     33.000    107.800
      47     37.500    110.700
      48     37.500    110.700
      49     37.500    110.700
      50     33.000    107.800
      51     37.500    110.700
      52     33.000    107.800
      53     35.000    109.500
      54     37.500    110.700
      55     37.500    110.700
      56     33.000    107.800
      57     33.000    107.800
      58     37.500    110.700
      59     33.000    107.800
      60     37.500    110.700

Dihedral Coeffs  

       1      1.300     -0.200      0.200      0.000 
       2      1.300     -0.200      0.200      0.000 
       3      1.300     -0.200      0.200      0.000 
       4      1.300     -0.200      0.200      0.000 
       5      1.300     -0.200      0.200      0.000 
       6      1.300     -0.200      0.200      0.000 
       7      1.300     -0.200      0.200      0.000 
       8      1.262     -0.198      0.465      0.000 
       9      0.000      0.000      0.300      0.000 
      10      0.000      0.000      0.300      0.000 
      11      0.000      0.000      0.300      0.000 
      12      0.000      0.000      0.300      0.000 
      13      0.000      0.000      0.300      0.000 
      14      0.000      0.000      0.300      0.000 
      15      0.000      0.000      0.300      0.000 
      16      0.000      0.000      0.300      0.000 
      17      0.000      0.000      0.300      0.000 
      18      0.000      0.000      0.300      0.000 
      19      0.000      0.000      0.300      0.000 
      20      0.000      0.000      0.300      0.000 
      21      0.000      0.000      0.300      0.000 
      22      0.000      0.000      0.300      0.000 
      23      0.000      0.000      0.300      0.000 
      24      0.000      0.000      0.300      0.000 
      25      0.000      0.000      0.300      0.000 
      26      0.000      0.000      0.300      0.000 
      27      0.000      0.000      0.300      0.000 
      28      0.000      0.000      0.300      0.000 
      29      0.000      0.000      0.300      0.000 
      30      0.000      0.000      0.300      0.000 
      31      0.000      0.000      0.300      0.000 
      32      0.000      0.000      0.300      0.000 
      33      0.000      0.000      0.300      0.000 
      34      0.000      0.000      0.300      0.000 
      35      0.000      0.000      0.300      0.000 
      36      0.000      0.000      0.300      0.000 
      37      0.000      0.000      0.300      0.000 
      38      0.000      0.000      0.300      0.000 
      39      0.000      0.000      0.300      0.000 
      40      0.000      0.000      0.300      0.000 
      41      0.000      0.000      0.300      0.000 
      42      0.000      0.000      0.300      0.000 
      43      0.000      0.000      0.300      0.000 
      44      0.000      0.000      0.452      0.000 
      45      0.000      0.000      0.300      0.000 
      46      0.000      0.000      0.300      0.000 
      47      0.000      0.000      0.300      0.000 
      48      0.000      0.000      0.300      0.000 
      49      0.000      0.000      0.452      0.000 
      50      0.000      0.000      0.300      0.000 
      51      0.000      0.000      0.300      0.000 
      52      0.000      0.000      0.300      0.000 
      53      0.000      0.000      0.300      0.000 
      54      0.000      0.000      0.300      0.000 
      55      0.000      0.000      0.300      0.000 
      56      0.000      0.000      0.300      0.000 
      57      0.000      0.000      0.300      0.000 
      58      0.000      0.000      0.300      0.000 
      59      0.000      0.000      0.300      0.000 
      60      0.000      0.000      0.300      0.000 
      61      0.000      0.000      0.300      0.000 
      62      0.000      0.000      0.300      0.000 
      63      0.000      0.000      0.300      0.000 
      64      0.000      0.000      0.300      0.000 
      65      0.000      0.000      0.300      0.000 
      66      0.000      0.000      0.300      0.000 
      67      0.000      0.000      0.300      0.000 
      68      0.000      0.000      0.300      0.000 
      69      0.000      0.000      0.300      0.000 
      70      0.000      0.000      0.300      0.000 
      71      0.000      0.000      0.300      0.000 
      72      0.000      0.000      0.300      0.000 
      73      0.000      0.000      0.300      0.000 
      74      0.000      0.000      0.300      0.000 
      75      0.000      0.000      0.300      0.000 
      76      0.000      0.000      0.300      0.000 
      77      0.000      0.000      0.300      0.000 
      78      0.000      0.000      0.300      0.000 
      79      0.000      0.000      0.300      0.000 
      80      0.000      0.000      0.300      0.000 
      81      0.000      0.000      0.300      0.000 

Improper Coeffs 

       1      0.000      -1       2 
       2      0.000      -1       2 
       3      0.000      -1       2 
       4      0.000      -1       2 
       5      0.000      -1       2 
       6      0.000      -1       2 
       7      0.000      -1       2 
       8      0.000      -1       2 
       9      0.000      -1       2 
      10      0.000      -1       2 
      11      0.000      -1       2 
      12      0.000      -1       2 
      13      0.000      -1       2 
      14      0.000      -1       2 
      15      0.000      -1       2 
      16      0.000      -1       2 
      17      0.000      -1       2 
      18      0.000      -1       2 
      19      0.000      -1       2 
      20      0.000      -1       2 

Atoms 

     1      1      1 -0.20860000    1.000  1.00000  0.00000
     2      1      2 -0.15770000   -0.520  1.00000  0.00000
     3      1      3 -0.15680000   -1.077  1.00000  1.42315
     4      1      4 -0.15720000   -2.606  0.99820  1.42315
     5      1      5 -0.15760000   -3.157  1.00001  2.84971
     6      1      6 -0.15780000   -4.686  0.99642  2.85627
     7      1      7 -0.15640000   -5.233  0.99645  4.28465
     8      1      8 -0.16840000   -6.762  0.99106  4.29286
     9      1      9 -0.15070000   -7.311  0.98927  5.72366
    10      1     10 -0.08600000   -8.845  0.98205  5.72203
    11      1     11 -0.89810000   -9.452  0.97797  7.45058
    12      1     12 0.06740000    1.379  1.00130 -1.02676
    13      1     13 0.06740000    1.391  0.11119  0.50522
    14      1     14 0.06740000    1.391  1.88760  0.50751
    15      1     15 0.07570000   -0.879  0.11660 -0.54103
    16      1     16 0.07570000   -0.880  1.88302 -0.54080
    17      1     17 0.07710000   -0.711  1.88354  1.96014
    18      1     18 0.07710000   -0.709  0.11783  1.96094
    19      1     19 0.07560000   -2.972  0.11333  0.88784
    20      1     20 0.07560000   -2.974  1.88021  0.88488
    21      1     21 0.07610000   -2.791  1.88555  3.38323
    22      1     22 0.07610000   -2.785  0.11923  3.38742
    23      1     23 0.07300000   -5.053  0.11157  2.32184
    24      1     24 0.07300000   -5.057  1.87844  2.32029
    25      1     25 0.07440000   -4.865  1.88197  4.81769
    26      1     26 0.07440000   -4.859  0.11508  4.82006
    27      1     27 0.06410000   -7.128  0.10627  3.75814
    28      1     28 0.06410000   -7.135  1.87314  3.75795
    29      1     29 0.07850000   -6.932  1.87517  6.25064
    30      1     30 0.07850000   -6.923  0.10760  6.25161
    31      1     31 0.03210000   -9.193  0.10536  5.16189
    32      1     32 0.03210000   -9.201  1.85621  5.16314

Bonds 

     1      1      2      1
     2      2      3      2
     3      3      4      3
     4      4      5      4
     5      5      6      5
     6      6      7      6
     7      7      8      7
     8      8      9      8
     9      9     10      9
    10     10     11     10
    11     11     12      1
    12     12     13      1
    13     13     14      1
    14     14     15      2
    15     15     16      2
    16     16     17      3
    17     17     18      3
    18     18     19      4
    19     19     20      4
    20     20     21      5
    21     21     22      5
    22     22     23      6
    23     23     24      6
    24     24     25      7
    25     25     26      7
    26     26     27      8
    27     27     28      8
    28     28     29      9
    29     29     30      9
    30     30     31     10
    31     31     32     10

Angles 

     1      1      1      2      3
     2      2      2      3      4
     3      3      3      4      5
     4      4      4      5      6
     5      5      5      6      7
     6      6      6      7      8
     7      7      7      8      9
     8      8      8      9     10
     9      9      9     10     11
    10     10      2      1     12
    11     11      2      1     13
    12     12      2      1     14
    13     13      1      2     15
    14     14      1      2     16
    15     15      2      3     17
    16     16      2      3     18
    17     17      3      4     19
    18     18      3      4     20
    19     19      4      5     21
    20     20      4      5     22
    21     21      5      6     23
    22     22      5      6     24
    23     23      6      7     25
    24     24      6      7     26
    25     25      7      8     27
    26     26      7      8     28
    27     27      8      9     29
    28     28      8      9     30
    29     29      9     10     31
    30     30      9     10     32
    31     31      9      8     28
    32     32     10      9     30
    33     33     29      9     30
    34     34     10      9     29
    35     35     19      4     20
    36     36      3      2     15
    37     37     13      1     14
    38     38     23      6     24
    39     39      6      5     22
    40     40     21      5     22
    41     41      7      6     23
    42     42     11     10     32
    43     43      8      7     26
    44     44     12      1     14
    45     45      3      2     16
    46     46     27      8     28
    47     47      4      3     18
    48     48      7      6     24
    49     49      8      7     25
    50     50     12      1     13
    51     51      5      4     19
    52     52     25      7     26
    53     53     11     10     31
    54     54      6      5     21
    55     55      5      4     20
    56     56     31     10     32
    57     57     15      2     16
    58     58      4      3     17
    59     59     17      3     18
    60     60      9      8     27

Dihedrals

     1      1      4      3      2      1 
     2      2      5      4      3      2 
     3      3      6      5      4      3 
     4      4      7      6      5      4 
     5      5      8      7      6      5 
     6      6      9      8      7      6 
     7      7     10      9      8      7 
     8      8     11     10      9      8 
     9      9     12      1      2      3 
    10     10     16      2      3      4 
    11     11     23      6      7      8 
    12     12     21      5      4     19 
    13     13     22      5      4      3 
    14     14     18      3      2      1 
    15     15     28      8      9     10 
    16     16     31     10      9     29 
    17     17     15      2      1     12 
    18     18     17      3      2     16 
    19     19     18      3      2     15 
    20     20     25      7      6      5 
    21     21     31     10      9     30 
    22     22     22      5      4     20 
    23     23     23      6      5     21 
    24     24     20      4      5      6 
    25     25     15      2      3      4 
    26     26     24      6      5     21 
    27     27     18      3      4      5 
    28     28     21      5      4     20 
    29     29     22      5      4     19 
    30     30     24      6      5     22 
    31     31     30      9      8     28 
    32     32     26      7      8      9 
    33     33     25      7      6     24 
    34     34     32     10      9      8 
    35     35     24      6      5      4 
    36     36     20      4      3     17 
    37     37     31     10      9      8 
    38     38     15      2      1     14 
    39     39     20      4      3     18 
    40     40     13      1      2      3 
    41     41     19      4      3     17 
    42     42     27      8      7     25 
    43     43     19      4      3     18 
    44     44     30      9     10     11 
    45     45     19      4      3      2 
    46     46     22      5      6      7 
    47     47     23      6      5      4 
    48     48     17      3      2     15 
    49     49     29      9     10     11 
    50     50     17      3      4      5 
    51     51     20      4      3      2 
    52     52     17      3      2      1 
    53     53     28      8      7     25 
    54     54     27      8      7      6 
    55     55     26      7      6      5 
    56     56     30      9      8     27 
    57     57     16      2      1     13 
    58     58     26      7      6     24 
    59     59     19      4      5      6 
    60     60     14      1      2      3 
    61     61     21      5      6      7 
    62     62     21      5      4      3 
    63     63     30      9      8      7 
    64     64     23      6      5     22 
    65     65     27      8      9     10 
    66     66     32     10      9     29 
    67     67     29      9      8      7 
    68     68     18      3      2     16 
    69     69     29      9      8     27 
    70     70     28      8      7     26 
    71     71     29      9      8     28 
    72     72     28      8      7      6 
    73     73     25      7      8      9 
    74     74     16      2      1     14 
    75     75     26      7      6     23 
    76     76     32     10      9     30 
    77     77     16      2      1     12 
    78     78     25      7      6     23 
    79     79     27      8      7     26 
    80     80     15      2      1     13 
    81     81     24      6      7      8 

Impropers

     1      1      1      2     12     13 
     2      2      1      2     12     14 
     3      3      2      1      3     15 
     4      4      2      1      3     16 
     5      5      3     17      2      4 
     6      6      3     18      4      2 
     7      7      4     19      5      3 
     8      8      4      3     20      5 
     9      9      5      4     21      6 
    10     10      5      4     22      6 
    11     11      6      7      5     23 
    12     12      6      5      7     24 
    13     13      7     25      6      8 
    14     14      7     26      6      8 
    15     15      8      9     27      7 
    16     16      8      9     28      7 
    17     17      9     10     29      8 
    18     18      9     10     30      8 
    19     19     10      9     11     31 
    20     20     10      9     11     32 

