LAMMPS data file Created by LigParGen - (Written by Leela S. Dodda)

      22 atoms
      21 bonds
      39 angles
      51 dihedrals
      13 impropers
 
      22 atom types
      21 bond types
      39 angle types
      51 dihedral types
      13 improper types
 
   -6.217020    43.782980 xlo xhi
    0.108440    50.108440 ylo yhi
   -1.026710    48.973290 zlo zhi

Masses

       1     12.011  
       2     12.011  
       3     12.011  
       4     12.011  
       5     12.011  
       6     12.011  
       7     14.007  
       8      1.008  
       9      1.008  
      10      1.008  
      11      1.008  
      12      1.008  
      13      1.008  
      14      1.008  
      15      1.008  
      16      1.008  
      17      1.008  
      18      1.008  
      19      1.008  
      20      1.008  
      21      1.008  
      22      1.008  

Pair Coeffs 

       1      0.066  3.5000000 
       2      0.066  3.5000000 
       3      0.066  3.5000000 
       4      0.066  3.5000000 
       5      0.066  3.5000000 
       6      0.066  3.5000000 
       7      0.170  3.3000000 
       8      0.030  2.5000000 
       9      0.030  2.5000000 
      10      0.030  2.5000000 
      11      0.030  2.5000000 
      12      0.030  2.5000000 
      13      0.030  2.5000000 
      14      0.030  2.5000000 
      15      0.030  2.5000000 
      16      0.030  2.5000000 
      17      0.030  2.5000000 
      18      0.030  2.5000000 
      19      0.030  2.5000000 
      20      0.030  2.5000000 
      21      0.000  0.0000000 
      22      0.000  0.0000000 

Bond Coeffs 

       1   268.0000     1.5290 
       2   268.0000     1.5290 
       3   268.0000     1.5290 
       4   268.0000     1.5290 
       5   268.0000     1.5290 
       6   382.0000     1.4480 
       7   340.0000     1.0900 
       8   340.0000     1.0900 
       9   340.0000     1.0900 
      10   340.0000     1.0900 
      11   340.0000     1.0900 
      12   340.0000     1.0900 
      13   340.0000     1.0900 
      14   340.0000     1.0900 
      15   340.0000     1.0900 
      16   340.0000     1.0900 
      17   340.0000     1.0900 
      18   340.0000     1.0900 
      19   340.0000     1.0900 
      20   434.0000     1.0100 
      21   434.0000     1.0100 

Angle Coeffs 

       1     58.350    112.700
       2     58.350    112.700
       3     58.350    112.700
       4     58.350    112.700
       5     56.200    109.470
       6     37.500    110.700
       7     37.500    110.700
       8     37.500    110.700
       9     37.500    110.700
      10     37.500    110.700
      11     37.500    110.700
      12     37.500    110.700
      13     37.500    110.700
      14     37.500    110.700
      15     37.500    110.700
      16     37.500    110.700
      17     37.500    110.700
      18     37.500    110.700
      19     35.000    109.500
      20     35.000    109.500
      21     33.000    107.800
      22     33.000    107.800
      23     33.000    107.800
      24     33.000    107.800
      25     37.500    110.700
      26     37.500    110.700
      27     33.000    107.800
      28     37.500    110.700
      29     35.000    109.500
      30     43.600    106.400
      31     37.500    110.700
      32     33.000    107.800
      33     37.500    110.700
      34     33.000    107.800
      35     33.000    107.800
      36     37.500    110.700
      37     37.500    110.700
      38     35.000    109.500
      39     37.500    110.700

Dihedral Coeffs  

       1      1.300     -0.200      0.200      0.000 
       2      1.300     -0.200      0.200      0.000 
       3      1.300     -0.200      0.200      0.000 
       4      2.392     -0.674      0.550      0.000 
       5      0.000      0.000      0.300      0.000 
       6     -0.190     -0.417      0.418      0.000 
       7      0.000      0.000      0.300      0.000 
       8      0.000      0.000      0.300      0.000 
       9      0.000      0.000      0.300      0.000 
      10     -1.013     -0.709      0.473      0.000 
      11      0.000      0.000      0.300      0.000 
      12      0.000      0.000      0.300      0.000 
      13      0.000      0.000      0.300      0.000 
      14      0.000      0.000      0.300      0.000 
      15      0.000      0.000      0.400      0.000 
      16      0.000      0.000      0.300      0.000 
      17      0.000      0.000      0.300      0.000 
      18      0.000      0.000      0.400      0.000 
      19      0.000      0.000      0.400      0.000 
      20      0.000      0.000      0.300      0.000 
      21      0.000      0.000      0.300      0.000 
      22      0.000      0.000      0.300      0.000 
      23      0.000      0.000      0.300      0.000 
      24      0.000      0.000      0.300      0.000 
      25      0.000      0.000      0.400      0.000 
      26      0.000      0.000      0.300      0.000 
      27     -1.013     -0.709      0.473      0.000 
      28      0.000      0.000      0.300      0.000 
      29      0.000      0.000      0.300      0.000 
      30      0.000      0.000      0.300      0.000 
      31      0.000      0.000      0.300      0.000 
      32     -0.190     -0.417      0.418      0.000 
      33      0.000      0.000      0.300      0.000 
      34      0.000      0.000      0.300      0.000 
      35      0.000      0.000      0.300      0.000 
      36      0.000      0.000      0.300      0.000 
      37      0.000      0.000      0.300      0.000 
      38      0.000      0.000      0.300      0.000 
      39      0.000      0.000      0.300      0.000 
      40      0.000      0.000      0.300      0.000 
      41      0.000      0.000      0.300      0.000 
      42      0.000      0.000      0.300      0.000 
      43      0.000      0.000      0.300      0.000 
      44      0.000      0.000      0.300      0.000 
      45      0.000      0.000      0.300      0.000 
      46      0.000      0.000      0.300      0.000 
      47      0.000      0.000      0.300      0.000 
      48      0.000      0.000      0.300      0.000 
      49      0.000      0.000      0.300      0.000 
      50      0.000      0.000      0.300      0.000 
      51      0.000      0.000      0.300      0.000 

Improper Coeffs 

       1      0.000      -1       2 
       2      0.000      -1       2 
       3      0.000      -1       2 
       4      0.000      -1       2 
       5      0.000      -1       2 
       6      0.000      -1       2 
       7      0.000      -1       2 
       8      0.000      -1       2 
       9      0.000      -1       2 
      10      0.000      -1       2 
      11      0.000      -1       2 
      12      0.000      -1       2 
      13      0.000      -1       2 

Atoms 

     1      1      1 -0.23880000    1.000  1.00000  0.00000
     2      1      2 -0.17920000   -0.520  1.00000  0.00000
     3      1      3 -0.17730000   -1.079  1.00000  1.42283
     4      1      4 -0.17920000   -2.608  0.99820  1.42119
     5      1      5 -0.18100000   -3.164  0.99640  2.84693
     6      1      6 0.08880000   -4.692  0.99280  2.84365
     7      1      7 -0.92760000   -5.200  0.99287  4.21061
     8      1      8 0.08110000    1.379  1.00130 -1.02671
     9      1      9 0.08110000    1.391  0.11110  0.50528
    10      1     10 0.08110000    1.391  1.88757  0.50749
    11      1     11 0.08810000   -0.879  0.11664 -0.54100
    12      1     12 0.08810000   -0.879  1.88325 -0.54094
    13      1     13 0.09060000   -0.713  1.88349  1.96018
    14      1     14 0.09060000   -0.711  0.11784  1.96102
    15      1     15 0.08870000   -2.973  0.11468  0.88325
    16      1     16 0.08870000   -2.975  1.88158  0.88475
    17      1     17 0.09830000   -2.796  1.88040  3.38297
    18      1     18 0.09830000   -2.790  0.11410  3.38178
    19      1     19 0.07740000   -5.067  0.10844  2.31697
    20      1     20 0.07740000   -5.069  1.87978  2.32328
    21      1     21 0.33230000   -4.876  0.15757  4.69658
    22      1     22 0.33230000   -6.217  0.93605  4.19277

Bonds 

     1      1      2      1
     2      2      3      2
     3      3      4      3
     4      4      5      4
     5      5      6      5
     6      6      7      6
     7      7      8      1
     8      8      9      1
     9      9     10      1
    10     10     11      2
    11     11     12      2
    12     12     13      3
    13     13     14      3
    14     14     15      4
    15     15     16      4
    16     16     17      5
    17     17     18      5
    18     18     19      6
    19     19     20      6
    20     20     21      7
    21     21     22      7

Angles 

     1      1      1      2      3
     2      2      2      3      4
     3      3      3      4      5
     4      4      4      5      6
     5      5      5      6      7
     6      6      2      1      8
     7      7      2      1      9
     8      8      2      1     10
     9      9      1      2     11
    10     10      1      2     12
    11     11      2      3     13
    12     12      2      3     14
    13     13      3      4     15
    14     14      3      4     16
    15     15      4      5     17
    16     16      4      5     18
    17     17      5      6     19
    18     18      5      6     20
    19     19      6      7     21
    20     20      6      7     22
    21     21     17      5     18
    22     22     15      4     16
    23     23      8      1     10
    24     24     11      2     12
    25     25      6      5     17
    26     26      5      4     16
    27     27      8      1      9
    28     28      3      2     11
    29     29      7      6     19
    30     30     21      7     22
    31     31      5      4     15
    32     32     13      3     14
    33     33      3      2     12
    34     34     19      6     20
    35     35      9      1     10
    36     36      4      3     14
    37     37      4      3     13
    38     38      7      6     20
    39     39      6      5     18

Dihedrals

     1      1      4      3      2      1 
     2      2      5      4      3      2 
     3      3      6      5      4      3 
     4      4      7      6      5      4 
     5      5      8      1      2      3 
     6      6     21      7      6      5 
     7      7     14      3      4      5 
     8      8     19      6      5     17 
     9      9     19      6      5      4 
    10     10     18      5      6      7 
    11     11     20      6      5      4 
    12     12      9      1      2      3 
    13     13     16      4      3     13 
    14     14     15      4      3     14 
    15     15     21      7      6     19 
    16     16     17      5      4     16 
    17     17     18      5      4     15 
    18     18     21      7      6     20 
    19     19     22      7      6     19 
    20     20     14      3      2     12 
    21     21     12      2      1     10 
    22     22     14      3      2      1 
    23     23     13      3      2     12 
    24     24     14      3      2     11 
    25     25     22      7      6     20 
    26     26     12      2      3      4 
    27     27     17      5      6      7 
    28     28     16      4      3      2 
    29     29     15      4      3      2 
    30     30     13      3      4      5 
    31     31     13      3      2     11 
    32     32     22      7      6      5 
    33     33     16      4      3     14 
    34     34     15      4      3     13 
    35     35     17      5      4     15 
    36     36     11      2      1      8 
    37     37     12      2      1      9 
    38     38     20      6      5     18 
    39     39     20      6      5     17 
    40     40     19      6      5     18 
    41     41     10      1      2      3 
    42     42     18      5      4     16 
    43     43     11      2      3      4 
    44     44     13      3      2      1 
    45     45     15      4      5      6 
    46     46     12      2      1      8 
    47     47     18      5      4      3 
    48     48     11      2      1      9 
    49     49     17      5      4      3 
    50     50     11      2      1     10 
    51     51     16      4      5      6 

Impropers

     1      1      1      9      8      2 
     2      2      1     10      8      2 
     3      3      2      1     11      3 
     4      4      2      1      3     12 
     5      5      3      2      4     13 
     6      6      3      2      4     14 
     7      7      4      3      5     15 
     8      8      4      3      5     16 
     9      9      5     17      4      6 
    10     10      5     18      4      6 
    11     11      6     19      5      7 
    12     12      6     20      5      7 
    13     13      7     21     22      6 

