#C6_amine

22 atoms
4 atom types

21 bonds
4 bond types

39 angles
6 angle types

51 dihedrals
6 dihedral types

13 impropers
1 improper types

-6.21702  43.78298  xlo xhi
0  50.10844  ylo yhi
-1.02671  48.97329  zlo zhi

Masses

1  12.011
2  14.007
3  1.008
4  1.008

Pair Coeffs

1  0.066  3.5
2  0.17  3.3
3  0.03  2.5
4  0.0  0.0

Bond Coeffs

1  268.0  1.529
2  382.0  1.448
3  340.0  1.09
4  434.0  1.01

Angle Coeffs

1  58.35  112.7
2  56.2  109.47
3  37.5  110.7
4  35.0  109.5
5  33.0  107.8
6  43.6  106.4

Dihedral Coeffs

1  1.3  -0.2  0.2  0.0
2  2.392  -0.674  0.55  0.0
3  0.0  0.0  0.3  0.0
4  -0.19  -0.417  0.418  0.0
5  -1.013  -0.709  0.473  0.0
6  0.0  0.0  0.4  0.0

Improper Coeffs

1  0.0  -1.0  2.0

Atoms # full

1  1  1  -0.2388   1   1   0
2  1  1  -0.1792  -0.52   1   0
3  1  1  -0.1773  -1.079   1   1.42283
4  1  1  -0.1792  -2.608   0.9982   1.42119
5  1  1  -0.181  -3.164   0.9964   2.84693
6  1  1   0.0888  -4.692   0.9928   2.84365
7  1  2  -0.9276  -5.2   0.99287   4.21061
8  1  3   0.0811   1.379   1.0013  -1.02671
9  1  3   0.0811   1.391   0.1111   0.50528
10  1  3   0.0811   1.391   1.88757   0.50749
11  1  3   0.0881  -0.879   0.11664  -0.541
12  1  3   0.0881  -0.879   1.88325  -0.54094
13  1  3   0.0906  -0.713   1.88349   1.96018
14  1  3   0.0906  -0.711   0.11784   1.96102
15  1  3   0.0887  -2.973   0.11468   0.88325
16  1  3   0.0887  -2.975   1.88158   0.88475
17  1  3   0.0983  -2.796   1.8804   3.38297
18  1  3   0.0983  -2.79   0.1141   3.38178
19  1  3   0.0774  -5.067   0.10844   2.31697
20  1  3   0.0774  -5.069   1.87978   2.32328
21  1  4   0.3323  -4.876   0.15757   4.69658
22  1  4   0.3323  -6.217   0.93605   4.19277

Bonds

1  1  2  1
2  1  3  2
3  1  4  3
4  1  5  4
5  1  6  5
6  2  7  6
7  3  8  1
8  3  9  1
9  3  10  1
10  3  11  2
11  3  12  2
12  3  13  3
13  3  14  3
14  3  15  4
15  3  16  4
16  3  17  5
17  3  18  5
18  3  19  6
19  3  20  6
20  4  21  7
21  4  22  7

Angles

1  1  1  2  3
2  1  2  3  4
3  1  3  4  5
4  1  4  5  6
5  2  5  6  7
6  3  2  1  8
7  3  2  1  9
8  3  2  1  10
9  3  1  2  11
10  3  1  2  12
11  3  2  3  13
12  3  2  3  14
13  3  3  4  15
14  3  3  4  16
15  3  4  5  17
16  3  4  5  18
17  3  5  6  19
18  3  5  6  20
19  4  6  7  21
20  4  6  7  22
21  5  17  5  18
22  5  15  4  16
23  5  8  1  10
24  5  11  2  12
25  3  6  5  17
26  3  5  4  16
27  5  8  1  9
28  3  3  2  11
29  4  7  6  19
30  6  21  7  22
31  3  5  4  15
32  5  13  3  14
33  3  3  2  12
34  5  19  6  20
35  5  9  1  10
36  3  4  3  14
37  3  4  3  13
38  4  7  6  20
39  3  6  5  18

Dihedrals

1  1  4  3  2  1
2  1  5  4  3  2
3  1  6  5  4  3
4  2  7  6  5  4
5  3  8  1  2  3
6  4  21  7  6  5
7  3  14  3  4  5
8  3  19  6  5  17
9  3  19  6  5  4
10  5  18  5  6  7
11  3  20  6  5  4
12  3  9  1  2  3
13  3  16  4  3  13
14  3  15  4  3  14
15  6  21  7  6  19
16  3  17  5  4  16
17  3  18  5  4  15
18  6  21  7  6  20
19  6  22  7  6  19
20  3  14  3  2  12
21  3  12  2  1  10
22  3  14  3  2  1
23  3  13  3  2  12
24  3  14  3  2  11
25  6  22  7  6  20
26  3  12  2  3  4
27  5  17  5  6  7
28  3  16  4  3  2
29  3  15  4  3  2
30  3  13  3  4  5
31  3  13  3  2  11
32  4  22  7  6  5
33  3  16  4  3  14
34  3  15  4  3  13
35  3  17  5  4  15
36  3  11  2  1  8
37  3  12  2  1  9
38  3  20  6  5  18
39  3  20  6  5  17
40  3  19  6  5  18
41  3  10  1  2  3
42  3  18  5  4  16
43  3  11  2  3  4
44  3  13  3  2  1
45  3  15  4  5  6
46  3  12  2  1  8
47  3  18  5  4  3
48  3  11  2  1  9
49  3  17  5  4  3
50  3  11  2  1  10
51  3  16  4  5  6

Impropers

1  1  1  9  8  2
2  1  1  10  8  2
3  1  2  1  11  3
4  1  2  1  3  12
5  1  3  2  4  13
6  1  3  2  4  14
7  1  4  3  5  15
8  1  4  3  5  16
9  1  5  17  4  6
10  1  5  18  4  6
11  1  6  19  5  7
12  1  6  20  5  7
13  1  7  21  22  6
