LAMMPS data file Created by LigParGen - (Written by Leela S. Dodda)

      74 atoms
      73 bonds
     134 angles
     186 dihedrals
      43 impropers
 
      74 atom types
      73 bond types
     134 angle types
     186 dihedral types
      43 improper types
 
  -10.705420    39.294580 xlo xhi
  -13.590730    36.409270 ylo yhi
   -0.972840    49.027160 zlo zhi

Masses

       1     12.011  
       2     15.999  
       3     15.999  
       4     12.011  
       5     12.011  
       6     12.011  
       7     15.999  
       8      1.008  
       9      1.008  
      10     15.999  
      11      1.008  
      12     15.999  
      13      1.008  
      14     12.011  
      15     15.999  
      16     15.999  
      17      1.008  
      18     12.011  
      19     15.999  
      20     15.999  
      21      1.008  
      22     12.011  
      23     12.011  
      24      1.008  
      25      1.008  
      26     12.011  
      27      1.008  
      28      1.008  
      29     12.011  
      30      1.008  
      31      1.008  
      32     12.011  
      33      1.008  
      34      1.008  
      35     12.011  
      36      1.008  
      37      1.008  
      38     12.011  
      39      1.008  
      40      1.008  
      41     12.011  
      42      1.008  
      43      1.008  
      44     12.011  
      45      1.008  
      46      1.008  
      47     12.011  
      48      1.008  
      49     12.011  
      50      1.008  
      51     12.011  
      52      1.008  
      53      1.008  
      54     12.011  
      55      1.008  
      56      1.008  
      57     12.011  
      58      1.008  
      59      1.008  
      60     12.011  
      61      1.008  
      62      1.008  
      63     12.011  
      64      1.008  
      65      1.008  
      66     12.011  
      67      1.008  
      68      1.008  
      69     12.011  
      70      1.008  
      71      1.008  
      72      1.008  
      73      1.008  
      74      1.008  

Pair Coeffs 

       1      0.070  3.5500000 
       2      0.210  2.9600000 
       3      0.210  2.9600000 
       4      0.066  3.5000000 
       5      0.066  3.5000000 
       6      0.066  3.5000000 
       7      0.140  2.9000000 
       8      0.030  2.5000000 
       9      0.030  2.5000000 
      10      0.140  2.9000000 
      11      0.030  2.5000000 
      12      0.140  2.9000000 
      13      0.030  2.5000000 
      14      0.070  3.5500000 
      15      0.210  2.9600000 
      16      0.170  3.1200000 
      17      0.000  0.0000000 
      18      0.070  3.5500000 
      19      0.170  3.1200000 
      20      0.210  2.9600000 
      21      0.000  0.0000000 
      22      0.066  3.5000000 
      23      0.066  3.5000000 
      24      0.030  2.5000000 
      25      0.030  2.5000000 
      26      0.066  3.5000000 
      27      0.030  2.5000000 
      28      0.030  2.5000000 
      29      0.066  3.5000000 
      30      0.030  2.5000000 
      31      0.030  2.5000000 
      32      0.066  3.5000000 
      33      0.030  2.5000000 
      34      0.030  2.5000000 
      35      0.066  3.5000000 
      36      0.030  2.5000000 
      37      0.030  2.5000000 
      38      0.066  3.5000000 
      39      0.030  2.5000000 
      40      0.030  2.5000000 
      41      0.066  3.5000000 
      42      0.030  2.5000000 
      43      0.030  2.5000000 
      44      0.076  3.5500000 
      45      0.030  2.5000000 
      46      0.030  2.5000000 
      47      0.076  3.5500000 
      48      0.030  2.5000000 
      49      0.066  3.5000000 
      50      0.030  2.5000000 
      51      0.066  3.5000000 
      52      0.030  2.5000000 
      53      0.030  2.5000000 
      54      0.066  3.5000000 
      55      0.030  2.5000000 
      56      0.030  2.5000000 
      57      0.066  3.5000000 
      58      0.030  2.5000000 
      59      0.030  2.5000000 
      60      0.066  3.5000000 
      61      0.030  2.5000000 
      62      0.030  2.5000000 
      63      0.066  3.5000000 
      64      0.030  2.5000000 
      65      0.030  2.5000000 
      66      0.066  3.5000000 
      67      0.030  2.5000000 
      68      0.030  2.5000000 
      69      0.066  3.5000000 
      70      0.030  2.5000000 
      71      0.030  2.5000000 
      72      0.030  2.5000000 
      73      0.030  2.5000000 
      74      0.030  2.5000000 

Bond Coeffs 

       1   656.0000     1.2500 
       2   656.0000     1.2500 
       3   317.0000     1.5220 
       4   268.0000     1.5290 
       5   268.0000     1.5290 
       6   320.0000     1.4100 
       7   340.0000     1.0900 
       8   340.0000     1.0900 
       9   320.0000     1.4100 
      10   340.0000     1.0900 
      11   320.0000     1.4100 
      12   340.0000     1.0900 
      13   214.0000     1.3270 
      14   570.0000     1.2290 
      15   450.0000     1.3640 
      16   553.0000     0.9450 
      17   214.0000     1.3270 
      18   450.0000     1.3640 
      19   570.0000     1.2290 
      20   553.0000     0.9450 
      21   320.0000     1.4100 
      22   268.0000     1.5290 
      23   340.0000     1.0900 
      24   340.0000     1.0900 
      25   268.0000     1.5290 
      26   340.0000     1.0900 
      27   340.0000     1.0900 
      28   268.0000     1.5290 
      29   340.0000     1.0900 
      30   340.0000     1.0900 
      31   268.0000     1.5290 
      32   340.0000     1.0900 
      33   340.0000     1.0900 
      34   268.0000     1.5290 
      35   340.0000     1.0900 
      36   340.0000     1.0900 
      37   268.0000     1.5290 
      38   340.0000     1.0900 
      39   340.0000     1.0900 
      40   268.0000     1.5290 
      41   340.0000     1.0900 
      42   340.0000     1.0900 
      43   317.0000     1.5100 
      44   340.0000     1.0900 
      45   340.0000     1.0900 
      46   549.0000     1.3400 
      47   340.0000     1.0800 
      48   317.0000     1.5100 
      49   340.0000     1.0800 
      50   268.0000     1.5290 
      51   340.0000     1.0900 
      52   340.0000     1.0900 
      53   268.0000     1.5290 
      54   340.0000     1.0900 
      55   340.0000     1.0900 
      56   268.0000     1.5290 
      57   340.0000     1.0900 
      58   340.0000     1.0900 
      59   268.0000     1.5290 
      60   340.0000     1.0900 
      61   340.0000     1.0900 
      62   268.0000     1.5290 
      63   340.0000     1.0900 
      64   340.0000     1.0900 
      65   268.0000     1.5290 
      66   340.0000     1.0900 
      67   340.0000     1.0900 
      68   268.0000     1.5290 
      69   340.0000     1.0900 
      70   340.0000     1.0900 
      71   340.0000     1.0900 
      72   340.0000     1.0900 
      73   340.0000     1.0900 

Angle Coeffs 

       1     80.000    126.000
       2     70.000    117.000
       3     63.000    111.100
       4     58.350    112.700
       5     50.000    109.500
       6     37.500    110.700
       7     37.500    110.700
       8     50.000    109.500
       9     37.500    110.700
      10     50.000    109.500
      11     35.000    109.500
      12     83.000    116.900
      13     83.000    123.400
      14     69.900    118.180
      15     35.000    113.000
      16     83.000    116.900
      17     69.900    118.180
      18     83.000    123.400
      19     35.000    113.000
      20     60.000    109.500
      21     50.000    109.500
      22     35.000    109.500
      23     35.000    109.500
      24     58.350    112.700
      25     37.500    110.700
      26     37.500    110.700
      27     58.350    112.700
      28     37.500    110.700
      29     37.500    110.700
      30     58.350    112.700
      31     37.500    110.700
      32     37.500    110.700
      33     58.350    112.700
      34     37.500    110.700
      35     37.500    110.700
      36     58.350    112.700
      37     37.500    110.700
      38     37.500    110.700
      39     58.350    112.700
      40     37.500    110.700
      41     37.500    110.700
      42     63.000    111.100
      43     37.500    110.700
      44     37.500    110.700
      45     70.000    124.000
      46     35.000    117.000
      47     70.000    124.000
      48     35.000    120.000
      49     63.000    111.100
      50     35.000    109.500
      51     35.000    109.500
      52     58.350    112.700
      53     37.500    110.700
      54     37.500    110.700
      55     58.350    112.700
      56     37.500    110.700
      57     37.500    110.700
      58     58.350    112.700
      59     37.500    110.700
      60     37.500    110.700
      61     58.350    112.700
      62     37.500    110.700
      63     37.500    110.700
      64     58.350    112.700
      65     37.500    110.700
      66     37.500    110.700
      67     58.350    112.700
      68     37.500    110.700
      69     37.500    110.700
      70     37.500    110.700
      71     37.500    110.700
      72     37.500    110.700
      73     37.500    110.700
      74     37.500    110.700
      75     37.500    110.700
      76     37.500    110.700
      77     37.500    110.700
      78     35.000    109.500
      79     37.500    110.700
      80     33.000    107.800
      81     33.000    107.800
      82     37.500    110.700
      83     33.000    107.800
      84     37.500    110.700
      85     33.000    107.800
      86     37.500    110.700
      87     33.000    107.800
      88     37.500    110.700
      89     33.000    107.800
      90     33.000    107.800
      91     33.000    107.800
      92     37.500    110.700
      93     33.000    107.800
      94     80.000    121.000
      95     50.000    109.500
      96     37.500    110.700
      97     35.000    120.000
      98     37.500    110.700
      99     35.000    109.500
     100     37.500    110.700
     101     33.000    107.800
     102     70.000    117.000
     103     37.500    110.700
     104     37.500    110.700
     105     33.000    107.800
     106     35.000    109.500
     107     37.500    110.700
     108     37.500    110.700
     109     37.500    110.700
     110     33.000    107.800
     111     37.500    110.700
     112     35.000    109.500
     113     33.000    107.800
     114     37.500    110.700
     115     33.000    107.800
     116     33.000    107.800
     117     37.500    110.700
     118     37.500    110.700
     119     37.500    110.700
     120     33.000    107.800
     121     37.500    110.700
     122     37.500    110.700
     123     80.000    121.000
     124     33.000    107.800
     125     37.500    110.700
     126     37.500    110.700
     127     50.000    109.500
     128     33.000    107.800
     129     35.000    109.500
     130     35.000    109.500
     131     35.000    117.000
     132     33.000    107.800
     133     37.500    110.700
     134     37.500    110.700

Dihedral Coeffs  

       1      0.000      0.000      0.000      0.000 
       2     -2.060     -0.313      0.315      0.000 
       3      1.711     -0.500      0.663      0.000 
       4     -1.220     -0.126      0.422      0.000 
       5      0.000      5.124      0.000      0.000 
       6      0.000      5.500      0.000      0.000 
       7     -1.220     -0.126      0.422      0.000 
       8      4.669      5.124      0.000      0.000 
       9      0.000      5.500      0.000      0.000 
      10      0.650     -0.250      0.670      0.000 
      11      0.650     -0.250      0.670      0.000 
      12      1.711     -0.500      0.663      0.000 
      13      1.300     -0.200      0.200      0.000 
      14      1.300     -0.200      0.200      0.000 
      15      1.300     -0.200      0.200      0.000 
      16      1.300     -0.200      0.200      0.000 
      17      1.300     -0.200      0.200      0.000 
      18      1.300     -0.200      0.200      0.000 
      19      0.346      0.405     -0.904      0.000 
      20      0.000     14.000      0.000      0.000 
      21      0.346      0.405     -0.904      0.000 
      22      1.300     -0.200      0.200      0.000 
      23      1.300     -0.200      0.200      0.000 
      24      1.300     -0.200      0.200      0.000 
      25      1.300     -0.200      0.200      0.000 
      26      1.300     -0.200      0.200      0.000 
      27      1.300     -0.200      0.200      0.000 
      28      0.000      0.000      0.300      0.000 
      29      0.000      0.000      0.760      0.000 
      30      0.000      0.000      0.318      0.000 
      31      0.000      0.000      0.300      0.000 
      32      0.000      0.000      0.000      0.000 
      33      0.000      0.000      0.300      0.000 
      34      0.000      0.000      0.300      0.000 
      35      0.000      0.000      0.366      0.000 
      36      0.000      0.000      0.300      0.000 
      37      0.000      0.000      0.300      0.000 
      38      0.000      0.000      0.300      0.000 
      39     -1.220     -0.126      0.422      0.000 
      40      0.000      0.000      0.300      0.000 
      41      0.000      0.000     -0.100      0.000 
      42      0.000      0.000      0.300      0.000 
      43      0.000      0.000      0.300      0.000 
      44      0.000      0.000      0.300      0.000 
      45      0.000      0.000     -0.372      0.000 
      46      0.000      0.000      0.300      0.000 
      47      0.000      0.000      0.300      0.000 
      48      0.000      0.000      0.468      0.000 
      49      0.000      0.000      0.468      0.000 
      50      0.000      0.000      0.300      0.000 
      51      0.000      0.000      0.300      0.000 
      52      0.000      0.000      0.300      0.000 
      53      0.000      0.000      0.300      0.000 
      54      0.000      0.000      0.300      0.000 
      55      0.000      0.000      0.300      0.000 
      56      0.000      0.000      0.300      0.000 
      57      0.000      0.000      0.300      0.000 
      58      0.000      5.124      0.000      0.000 
      59      0.000     14.000      0.000      0.000 
      60      0.000      0.000      0.318      0.000 
      61      0.000      0.000      0.300      0.000 
      62      0.000      0.000      0.300      0.000 
      63      0.000      0.000      0.300      0.000 
      64      0.000      0.000      0.300      0.000 
      65      0.000      0.000      0.300      0.000 
      66      0.000      0.000      0.300      0.000 
      67      0.000      0.000      0.300      0.000 
      68      0.000      0.000      0.300      0.000 
      69      0.000      0.000      0.300      0.000 
      70      0.000      0.000      0.300      0.000 
      71      0.000      0.000      0.300      0.000 
      72      0.000      0.000      0.300      0.000 
      73      0.000     -8.000      0.000      0.000 
      74      0.000      0.000      0.300      0.000 
      75     -0.550      0.000      0.000      0.000 
      76      0.000      0.000      0.300      0.000 
      77      0.000      0.000      0.300      0.000 
      78      0.000      0.000     -0.372      0.000 
      79      0.000      0.000      0.300      0.000 
      80      0.000      0.000      0.300      0.000 
      81      0.000      0.000      0.300      0.000 
      82      0.000      0.000      0.300      0.000 
      83      0.000      0.000      0.468      0.000 
      84      0.000      0.000      0.300      0.000 
      85      0.000      0.820      0.000      0.000 
      86      0.000      0.000      0.300      0.000 
      87      0.000      0.000      0.760      0.000 
      88      1.711     -0.500      0.663      0.000 
      89      0.000      0.000      0.300      0.000 
      90      0.000      0.000      0.300      0.000 
      91      0.000     14.000      0.000      0.000 
      92      0.000      0.000      0.300      0.000 
      93      0.000      0.000      0.760      0.000 
      94      0.000      0.000      0.300      0.000 
      95      0.000      0.000      0.300      0.000 
      96      0.000      0.000      0.760      0.000 
      97     -1.220     -0.126      0.422      0.000 
      98     -0.550      0.000      0.000      0.000 
      99      0.000      0.000      0.300      0.000 
     100      0.000      0.000      0.300      0.000 
     101      0.000      0.000      0.300      0.000 
     102      0.000      0.000      0.300      0.000 
     103      0.000      0.000      0.300      0.000 
     104      0.000      0.000      0.300      0.000 
     105      0.000      0.000      0.300      0.000 
     106      0.000      0.000      0.300      0.000 
     107      0.000      0.000      0.300      0.000 
     108      0.000      0.000      0.300      0.000 
     109      0.000      0.000      0.300      0.000 
     110      0.000      0.000      0.300      0.000 
     111      0.000      0.000      0.300      0.000 
     112      0.000      0.000      0.300      0.000 
     113      0.000      0.000      0.300      0.000 
     114      0.000      0.000     -0.372      0.000 
     115      0.000      0.000      0.468      0.000 
     116      0.000      0.000      0.300      0.000 
     117      0.000      0.000      0.300      0.000 
     118      0.000      5.500      0.000      0.000 
     119      0.000      0.000      0.300      0.000 
     120      0.000      0.000      0.300      0.000 
     121      0.000      0.000      0.300      0.000 
     122      0.000      0.000      0.366      0.000 
     123      0.000      0.000      0.198      0.000 
     124      0.000      0.000      0.300      0.000 
     125      0.000      0.000     -0.372      0.000 
     126      0.000      0.000      0.300      0.000 
     127      0.000      0.000      0.300      0.000 
     128      0.000      0.000      0.300      0.000 
     129      0.000      0.000      0.318      0.000 
     130      0.000      0.000      0.300      0.000 
     131      0.000     14.000      0.000      0.000 
     132      0.000      0.000      0.300      0.000 
     133      0.000      0.000      0.366      0.000 
     134      0.000      0.000      0.300      0.000 
     135      0.000      0.000      0.300      0.000 
     136      0.000      0.000      0.318      0.000 
     137      0.000      0.000      0.300      0.000 
     138      0.000      0.000      0.300      0.000 
     139      0.000      0.000      0.468      0.000 
     140      0.000      0.000      0.300      0.000 
     141      0.000      0.000      0.300      0.000 
     142      0.000      0.000      0.300      0.000 
     143      0.000      0.000      0.300      0.000 
     144      0.000      0.000      0.300      0.000 
     145      0.000      0.000      0.300      0.000 
     146      0.000      0.000      0.300      0.000 
     147      0.000      0.000      0.300      0.000 
     148      0.000      0.000      0.300      0.000 
     149      0.000     -8.000      0.000      0.000 
     150      0.000      0.000      0.300      0.000 
     151      0.000      0.000      0.000      0.000 
     152      0.000      0.820      0.000      0.000 
     153      0.000      0.000      0.468      0.000 
     154      0.000      0.000      0.300      0.000 
     155      0.000      0.000      0.300      0.000 
     156      0.000      0.000      0.300      0.000 
     157      0.000      0.000      0.300      0.000 
     158      0.000      0.000      0.366      0.000 
     159      0.000      0.000      0.300      0.000 
     160      0.000      0.000      0.300      0.000 
     161      0.000      0.000      0.300      0.000 
     162      0.000      0.000      0.300      0.000 
     163      0.000      0.000      0.300      0.000 
     164      0.000      0.000      0.300      0.000 
     165      0.000      0.000      0.300      0.000 
     166      0.000      0.000      0.300      0.000 
     167      0.000      0.000      0.300      0.000 
     168      0.000      0.000      0.300      0.000 
     169      0.000      5.500      0.000      0.000 
     170      0.000      0.000      0.468      0.000 
     171      0.000      0.000      0.300      0.000 
     172      0.000      0.000      0.198      0.000 
     173      0.000      0.000      0.300      0.000 
     174      0.000      0.000      0.300      0.000 
     175      0.000      0.000      0.300      0.000 
     176      0.000      0.000      0.300      0.000 
     177      0.000      0.000      0.300      0.000 
     178      0.000      0.000      0.300      0.000 
     179      0.000      0.000      0.300      0.000 
     180      0.000      0.000      0.300      0.000 
     181      0.000      0.000      0.300      0.000 
     182      0.000      0.000      0.300      0.000 
     183     -6.180      0.000      0.000      0.000 
     184      0.000      0.000      0.300      0.000 
     185      0.000      0.000      0.000      0.000 
     186      4.669      5.124      0.000      0.000 

Improper Coeffs 

       1     10.500      -1       2 
       2      0.000      -1       2 
       3      0.000      -1       2 
       4      0.000      -1       2 
       5      0.000      -1       2 
       6      0.000      -1       2 
       7      0.000      -1       2 
       8     10.500      -1       2 
       9     10.500      -1       2 
      10      0.000      -1       2 
      11      0.000      -1       2 
      12      0.000      -1       2 
      13      0.000      -1       2 
      14      0.000      -1       2 
      15      0.000      -1       2 
      16      0.000      -1       2 
      17      0.000      -1       2 
      18      0.000      -1       2 
      19      0.000      -1       2 
      20      0.000      -1       2 
      21      0.000      -1       2 
      22      0.000      -1       2 
      23      0.000      -1       2 
      24      0.000      -1       2 
      25      0.000      -1       2 
      26      2.500      -1       2 
      27      2.500      -1       2 
      28      0.000      -1       2 
      29      0.000      -1       2 
      30      0.000      -1       2 
      31      0.000      -1       2 
      32      0.000      -1       2 
      33      0.000      -1       2 
      34      0.000      -1       2 
      35      0.000      -1       2 
      36      0.000      -1       2 
      37      0.000      -1       2 
      38      0.000      -1       2 
      39      0.000      -1       2 
      40      0.000      -1       2 
      41      0.000      -1       2 
      42      0.000      -1       2 
      43      0.000      -1       2 

Atoms 

     1      1      1 0.42330000    1.000  1.00000  0.00000
     2      1      2 -0.57490000   -0.270  1.00000  0.00000
     3      1      3 -0.57490000    1.800  1.00000 -0.97284
     4      1      4 -0.00960000    1.630  0.99823  1.40090
     5      1      5 0.03320000    1.566 -0.42774  1.97888
     6      1      6 -0.02790000    2.232 -0.56150  3.36476
     7      1      7 -0.30360000    1.480  0.01923  4.42798
     8      1      8 0.09500000    3.200 -0.04875  3.35925
     9      1      9 0.09500000    2.448 -1.61370  3.58732
    10      1     10 -0.26960000    2.113 -1.43173  1.07907
    11      1     11 0.14420000    0.514 -0.70527  2.08763
    12      1     12 -0.35630000    1.023  2.03249  2.25314
    13      1     13 0.14540000    2.674  1.31135  1.28998
    14      1     14 0.54550000   -0.208  2.01243  2.82366
    15      1     15 -0.42730000   -0.482  2.66724  3.82002
    16      1     16 -0.56440000   -1.116  1.22225  2.21854
    17      1     17 0.45610000   -0.881  1.10568  1.25300
    18      1     18 0.51830000    3.406 -1.35034  0.71852
    19      1     19 -0.44300000    3.676 -2.29622 -0.19599
    20      1     20 -0.46260000    4.274 -0.61547  1.15303
    21      1     21 0.39890000    4.581 -2.06056 -0.46907
    22      1     22 -0.00110000    0.410 -0.79070  4.91127
    23      1     23 -0.19040000    0.918 -1.73346  6.00075
    24      1     24 0.09730000   -0.074 -1.34379  4.09972
    25      1     25 0.09730000   -0.336 -0.11230  5.33915
    26      1     26 -0.15300000   -0.210 -2.57645  6.59342
    27      1     27 0.08110000    1.404 -1.14263  6.78727
    28      1     28 0.08110000    1.697 -2.38805  5.59374
    29      1     29 -0.15710000    0.320 -3.51079  7.68207
    30      1     30 0.08040000   -0.683 -3.16664  5.79950
    31      1     31 0.08040000   -0.980 -1.91891  7.01403
    32      1     32 -0.15640000   -0.797 -4.36492  8.28640
    33      1     33 0.07650000    0.797 -2.91789  8.47234
    34      1     34 0.07650000    1.093 -4.16464  7.25714
    35      1     35 -0.15640000   -0.244 -5.28999  9.37376
    36      1     36 0.07940000   -1.269 -4.96372  7.49821
    37      1     37 0.07940000   -1.566 -3.70716  8.70611
    38      1     38 -0.15070000   -1.284 -6.25374  9.94932
    39      1     39 0.07660000    0.186 -4.68873 10.18446
    40      1     40 0.07660000    0.576 -5.88629  8.95371
    41      1     41 -0.12690000   -2.420 -5.54988 10.69573
    42      1     42 0.07670000   -0.766 -6.93653 10.63516
    43      1     43 0.07670000   -1.697 -6.87248  9.14227
    44      1     44 -0.16130000   -3.289 -6.54825 11.41031
    45      1     45 0.08700000   -3.046 -4.99149  9.99172
    46      1     46 0.08700000   -2.003 -4.82441 11.40530
    47      1     47 -0.17820000   -3.442 -6.58179 12.74316
    48      1     48 0.11720000   -3.809 -7.27142 10.78529
    49      1     49 -0.12310000   -4.306 -7.57497 13.46829
    50      1     50 0.11760000   -2.918 -5.85525 13.36133
    51      1     51 -0.15100000   -5.453 -6.88115 14.20788
    52      1     52 0.08180000   -3.675 -8.11678 14.18229
    53      1     53 0.08180000   -4.705 -8.31376 12.76494
    54      1     54 -0.15570000   -6.220 -7.81584 15.14881
    55      1     55 0.08050000   -6.146 -6.43906 13.48172
    56      1     56 0.08050000   -5.054 -6.05230 14.80678
    57      1     57 -0.15630000   -6.940 -8.95650 14.42618
    58      1     58 0.07570000   -5.529 -8.22890 15.89309
    59      1     59 0.07570000   -6.957 -7.21775 15.69793
    60      1     60 -0.15770000   -7.760 -9.79833 15.40698
    61      1     61 0.08030000   -7.600 -8.54508 13.65312
    62      1     62 0.08030000   -6.209 -9.60300 13.92574
    63      1     63 -0.15650000   -8.481 -10.94163 14.69231
    64      1     64 0.07680000   -8.495 -9.15976 15.91358
    65      1     65 0.07680000   -7.098 -10.20859 16.17935
    66      1     66 -0.15720000   -9.297 -11.78282 15.67374
    67      1     67 0.07910000   -9.143 -10.53257 13.91947
    68      1     68 0.07910000   -7.745 -11.57938 14.18565
    69      1     69 -0.20910000  -10.015 -12.92196 14.96779
    70      1     70 0.07640000  -10.036 -11.14972 16.17969
    71      1     71 0.07640000   -8.637 -12.19675 16.44620
    72      1     72 0.07030000  -10.705 -12.53924 14.21043
    73      1     73 0.07030000  -10.593 -13.50911 15.68893
    74      1     74 0.07030000   -9.301 -13.59073 14.47718

Bonds 

     1      1      2      1
     2      2      3      1
     3      3      4      1
     4      4      5      4
     5      5      6      5
     6      6      7      6
     7      7      8      6
     8      8      9      6
     9      9     10      5
    10     10     11      5
    11     11     12      4
    12     12     13      4
    13     13     14     12
    14     14     15     14
    15     15     16     14
    16     16     17     16
    17     17     18     10
    18     18     19     18
    19     19     20     18
    20     20     21     19
    21     21     22      7
    22     22     23     22
    23     23     24     22
    24     24     25     22
    25     25     26     23
    26     26     27     23
    27     27     28     23
    28     28     29     26
    29     29     30     26
    30     30     31     26
    31     31     32     29
    32     32     33     29
    33     33     34     29
    34     34     35     32
    35     35     36     32
    36     36     37     32
    37     37     38     35
    38     38     39     35
    39     39     40     35
    40     40     41     38
    41     41     42     38
    42     42     43     38
    43     43     44     41
    44     44     45     41
    45     45     46     41
    46     46     47     44
    47     47     48     44
    48     48     49     47
    49     49     50     47
    50     50     51     49
    51     51     52     49
    52     52     53     49
    53     53     54     51
    54     54     55     51
    55     55     56     51
    56     56     57     54
    57     57     58     54
    58     58     59     54
    59     59     60     57
    60     60     61     57
    61     61     62     57
    62     62     63     60
    63     63     64     60
    64     64     65     60
    65     65     66     63
    66     66     67     63
    67     67     68     63
    68     68     69     66
    69     69     70     66
    70     70     71     66
    71     71     72     69
    72     72     73     69
    73     73     74     69

Angles 

     1      1      2      1      3
     2      2      2      1      4
     3      3      1      4      5
     4      4      4      5      6
     5      5      5      6      7
     6      6      5      6      8
     7      7      5      6      9
     8      8      4      5     10
     9      9      4      5     11
    10     10      1      4     12
    11     11      1      4     13
    12     12      4     12     14
    13     13     12     14     15
    14     14     12     14     16
    15     15     14     16     17
    16     16      5     10     18
    17     17     10     18     19
    18     18     10     18     20
    19     19     18     19     21
    20     20      6      7     22
    21     21      7     22     23
    22     22      7     22     24
    23     23      7     22     25
    24     24     22     23     26
    25     25     22     23     27
    26     26     22     23     28