#GLC18_usat_anion

74 atoms
8 atom types

73 bonds
12 bond types

134 angles
17 angle types

186 dihedrals
23 dihedral types

43 impropers
3 improper types

-10.70542  39.29458  xlo xhi
-13.59073  36.40927  ylo yhi
-0.97284  49.02716  zlo zhi

Masses

1  12.011
2  15.999
3  12.011
4  15.999
5  1.008
6  15.999
7  1.008
8  12.011

Pair Coeffs

1  0.07  3.55
2  0.21  2.96
3  0.066  3.5
4  0.14  2.9
5  0.03  2.5
6  0.17  3.12
7  0.0  0.0
8  0.076  3.55

Bond Coeffs

1  656.0  1.25
2  317.0  1.522
3  268.0  1.529
4  320.0  1.41
5  340.0  1.09
6  214.0  1.327
7  570.0  1.229
8  450.0  1.364
9  553.0  0.945
10  317.0  1.51
11  549.0  1.34
12  340.0  1.08

Angle Coeffs

1  80.0  126.0
2  70.0  117.0
3  63.0  111.1
4  58.35  112.7
5  50.0  109.5
6  37.5  110.7
7  35.0  109.5
8  83.0  116.9
9  83.0  123.4
10  69.9  118.18
11  35.0  113.0
12  60.0  109.5
13  70.0  124.0
14  35.0  117.0
15  35.0  120.0
16  33.0  107.8
17  80.0  121.0

Dihedral Coeffs

1  0.0  0.0  0.0  0.0
2  -2.06  -0.313  0.315  0.0
3  1.711  -0.5  0.663  0.0
4  -1.22  -0.126  0.422  0.0
5  0.0  5.124  0.0  0.0
6  0.0  5.5  0.0  0.0
7  4.669  5.124  0.0  0.0
8  0.65  -0.25  0.67  0.0
9  1.3  -0.2  0.2  0.0
10  0.346  0.405  -0.904  0.0
11  0.0  14.0  0.0  0.0
12  0.0  0.0  0.3  0.0
13  0.0  0.0  0.76  0.0
14  0.0  0.0  0.318  0.0
15  0.0  0.0  0.366  0.0
16  0.0  0.0  -0.1  0.0
17  0.0  0.0  -0.372  0.0
18  0.0  0.0  0.468  0.0
19  0.0  -8.0  0.0  0.0
20  -0.55  0.0  0.0  0.0
21  0.0  0.82  0.0  0.0
22  0.0  0.0  0.198  0.0
23  -6.18  0.0  0.0  0.0

Improper Coeffs

1  10.5  -1.0  2.0
2  0.0  -1.0  2.0
3  2.5  -1.0  2.0

Atoms # full

1  1  1   0.4233   1   1   0
2  1  2  -0.5749  -0.27   1   0
3  1  2  -0.5749   1.8   1  -0.97284
4  1  3  -0.0096   1.63   0.99823   1.4009
5  1  3   0.0332   1.566  -0.42774   1.97888
6  1  3  -0.0279   2.232  -0.5615   3.36476
7  1  4  -0.3036   1.48   0.01923   4.42798
8  1  5   0.095   3.2  -0.04875   3.35925
9  1  5   0.095   2.448  -1.6137   3.58732
10  1  4  -0.2696   2.113  -1.43173   1.07907
11  1  5   0.1442   0.514  -0.70527   2.08763
12  1  4  -0.3563   1.023   2.03249   2.25314
13  1  5   0.1454   2.674   1.31135   1.28998
14  1  1   0.5455  -0.208   2.01243   2.82366
15  1  2  -0.4273  -0.482   2.66724   3.82002
16  1  6  -0.5644  -1.116   1.22225   2.21854
17  1  7   0.4561  -0.881   1.10568   1.253
18  1  1   0.5183   3.406  -1.35034   0.71852
19  1  6  -0.443   3.676  -2.29622  -0.19599
20  1  2  -0.4626   4.274  -0.61547   1.15303
21  1  7   0.3989   4.581  -2.06056  -0.46907
22  1  3  -0.0011   0.41  -0.7907   4.91127
23  1  3  -0.1904   0.918  -1.73346   6.00075
24  1  5   0.0973  -0.074  -1.34379   4.09972
25  1  5   0.0973  -0.336  -0.1123   5.33915
26  1  3  -0.153  -0.21  -2.57645   6.59342
27  1  5   0.0811   1.404  -1.14263   6.78727
28  1  5   0.0811   1.697  -2.38805   5.59374
29  1  3  -0.1571   0.32  -3.51079   7.68207
30  1  5   0.0804  -0.683  -3.16664   5.7995
31  1  5   0.0804  -0.98  -1.91891   7.01403
32  1  3  -0.1564  -0.797  -4.36492   8.2864
33  1  5   0.0765   0.797  -2.91789   8.47234
34  1  5   0.0765   1.093  -4.16464   7.25714
35  1  3  -0.1564  -0.244  -5.28999   9.37376
36  1  5   0.0794  -1.269  -4.96372   7.49821
37  1  5   0.0794  -1.566  -3.70716   8.70611
38  1  3  -0.1507  -1.284  -6.25374   9.94932
39  1  5   0.0766   0.186  -4.68873   10.18446
40  1  5   0.0766   0.576  -5.88629   8.95371
41  1  3  -0.1269  -2.42  -5.54988   10.69573
42  1  5   0.0767  -0.766  -6.93653   10.63516
43  1  5   0.0767  -1.697  -6.87248   9.14227
44  1  8  -0.1613  -3.289  -6.54825   11.41031
45  1  5   0.087  -3.046  -4.99149   9.99172
46  1  5   0.087  -2.003  -4.82441   11.4053
47  1  8  -0.1782  -3.442  -6.58179   12.74316
48  1  5   0.1172  -3.809  -7.27142   10.78529
49  1  3  -0.1231  -4.306  -7.57497   13.46829
50  1  5   0.1176  -2.918  -5.85525   13.36133
51  1  3  -0.151  -5.453  -6.88115   14.20788
52  1  5   0.0818  -3.675  -8.11678   14.18229
53  1  5   0.0818  -4.705  -8.31376   12.76494
54  1  3  -0.1557  -6.22  -7.81584   15.14881
55  1  5   0.0805  -6.146  -6.43906   13.48172
56  1  5   0.0805  -5.054  -6.0523   14.80678
57  1  3  -0.1563  -6.94  -8.9565   14.42618
58  1  5   0.0757  -5.529  -8.2289   15.89309
59  1  5   0.0757  -6.957  -7.21775   15.69793
60  1  3  -0.1577  -7.76  -9.79833   15.40698
61  1  5   0.0803  -7.6  -8.54508   13.65312
62  1  5   0.0803  -6.209  -9.603   13.92574
63  1  3  -0.1565  -8.481  -10.94163   14.69231
64  1  5   0.0768  -8.495  -9.15976   15.91358
65  1  5   0.0768  -7.098  -10.20859   16.17935
66  1  3  -0.1572  -9.297  -11.78282   15.67374
67  1  5   0.0791  -9.143  -10.53257   13.91947
68  1  5   0.0791  -7.745  -11.57938   14.18565
69  1  3  -0.2091  -10.015  -12.92196   14.96779
70  1  5   0.0764  -10.036  -11.14972   16.17969
71  1  5   0.0764  -8.637  -12.19675   16.4462
72  1  5   0.0703  -10.705  -12.53924   14.21043
73  1  5   0.0703  -10.593  -13.50911   15.68893
74  1  5   0.0703  -9.301  -13.59073   14.47718

Bonds

1  1  2  1
2  1  3  1
3  2  4  1
4  3  5  4
5  3  6  5
6  4  7  6
7  5  8  6
8  5  9  6
9  4  10  5
10  5  11  5
11  4  12  4
12  5  13  4
13  6  14  12
14  7  15  14
15  8  16  14
16  9  17  16
17  6  18  10
18  8  19  18
19  7  20  18
20  9  21  19
21  4  22  7
22  3  23  22
23  5  24  22
24  5  25  22
25  3  26  23
26  5  27  23
27  5  28  23
28  3  29  26
29  5  30  26
30  5  31  26
31  3  32  29
32  5  33  29
33  5  34  29
34  3  35  32
35  5  36  32
36  5  37  32
37  3  38  35
38  5  39  35
39  5  40  35
40  3  41  38
41  5  42  38
42  5  43  38
43  10  44  41
44  5  45  41
45  5  46  41
46  11  47  44
47  12  48  44
48  10  49  47
49  12  50  47
50  3  51  49
51  5  52  49
52  5  53  49
53  3  54  51
54  5  55  51
55  5  56  51
56  3  57  54
57  5  58  54
58  5  59  54
59  3  60  57
60  5  61  57
61  5  62  57
62  3  63  60
63  5  64  60
64  5  65  60
65  3  66  63
66  5  67  63
67  5  68  63
68  3  69  66
69  5  70  66
70  5  71  66
71  5  72  69
72  5  73  69
73  5  74  69

Angles

1  1  2  1  3
2  2  2  1  4
3  3  1  4  5
4  4  4  5  6
5  5  5  6  7
6  6  5  6  8
7  6  5  6  9
8  5  4  5  10
9  6  4  5  11
10  5  1  4  12
11  7  1  4  13
12  8  4  12  14
13  9  12  14  15
14  10  12  14  16
15  11  14  16  17
16  8  5  10  18
17  10  10  18  19
18  9  10  18  20
19  11  18  19  21
20  12  6  7  22
21  5  7  22  23
22  7  7  22  24
23  7  7  22  25
24  4  22  23  26
25  6  22  23  27
26  6  22  23  28
27  4  23  26  29
28  6  23  26  30
29  6  23  26  31
30  4  26  29  32
31  6  26  29  33
32  6  26  29  34
33  4  29  32  35
34  6  29  32  36
35  6  29  32  37
36  4  32  35  38
37  6  32  35  39
38  6  32  35  40
39  4  35  38  41
40  6  35  38  42
41  6  35  38  43
42  3  38  41  44
43  6  38  41  45
44  6  38  41  46
45  13  41  44  47
46  14  41  44  48
47  13  44  47  49
48  15  44  47  50
49  3  47  49  51
50  7  47  49  52
51  7  47  49  53
52  4  49  51  54
53  6  49  51  55
54  6  49  51  56
55  4  51  54  57
56  6  51  54  58
57  6  51  54  59
58  4  54  57  60
59  6  54  57  61
60  6  54  57  62
61  4  57  60  63
62  6  57  60  64
63  6  57  60  65
64  4  60  63  66
65  6  60  63  67
66  6  60  63  68
67  4  63  66  69
68  6  63  66  70
69  6  63  66  71
70  6  66  69  72
71  6  66  69  73
72  6  66  69  74
73  6  38  35  39
74  6  41  38  43
75  6  32  29  33
76  6  26  23  27
77  6  5  4  13
78  7  44  41  46
79  6  38  35  40
80  16  42  38  43
81  16  67  63  68
82  6  26  23  28
83  16  72  69  73
84  6  23  22  24
85  16  70  66  71
86  6  51  49  52
87  16  27  23  28
88  6  60  57  61
89  16  55  51  56
90  16  58  54  59
91  16  39  35  40
92  6  57  54  59
93  16  52  49  53
94  17  15  14  16
95  5  6  5  10
96  6  6  5  11
97  15  47  44  48
98  6  23  22  25
99  7  44  41  45
100  6  63  60  64
101  16  36  32  37
102  2  3  1  4
103  6  29  26  30
104  6  63  60  65
105  16  45  41  46
106  7  7  6  9
107  6  66  63  68
108  6  60  57  62
109  6  29  26  31
110  16  33  29  34
111  6  54  51  56
112  7  10  5  11
113  16  64  60  65
114  6  57  54  58
115  16  73  69  74
116  16  24  22  25
117  6  35  32  37
118  6  35  32  36
119  6  69  66  70
120  16  61  57  62
121  6  32  29  34
122  6  54  51  55
123  17  19  18  20
124  16  8  6  9
125  6  66  63  67
126  6  51  49  53
127  5  5  4  12
128  16  30  26  31
129  7  7  6  8
130  7  12  4  13
131  14  49  47  50
132  16  72  69  74
133  6  69  66  71
134  6  41  38  42

Dihedrals

1  1  5  4  1  2
2  2  6  5  4  1
3  3  7  6  5  4
4  4  14  12  4  1
5  5  15  14  12  4
6  6  17  16  14  12
7  4  18  10  5  4
8  7  19  18  10  5
9  6  21  19  18  10
10  8  22  7  6  5
11  8  23  22  7  6
12  3  26  23  22  7
13  9  29  26  23  22
14  9  32  29  26  23
15  9  35  32  29  26
16  9  38  35  32  29
17  9  41  38  35  32
18  9  44  41  38  35
19  10  47  44  41  38
20  11  49  47  44  41
21  10  51  49  47  44
22  9  54  51  49  47
23  9  57  54  51  49
24  9  60  57  54  51
25  9  63  60  57  54
26  9  66  63  60  57
27  9  69  66  63  60
28  12  72  69  66  63
29  13  22  7  6  9
30  14  53  49  47  50
31  12  68  63  60  57
32  1  5  4  1  3
33  12  56  51  49  52
34  12  55  51  49  53
35  15  56  51  49  47
36  12  38  35  32  36
37  12  66  63  60  65
38  12  67  63  60  64
39  4  14  12  4  5
40  12  8  6  5  4
41  16  11  5  4  1
42  12  9  6  5  4
43  12  35  32  29  33
44  12  73  69  66  70
45  17  52  49  47  44
46  12  39  35  32  29
47  12  67  63  60  65
48  18  12  4  5  11
49  18  13  4  5  10
50  12  72  69  66  70
51  12  68  63  60  64
52  12  64  60  57  61
53  12  63  60  57  62
54  12  58  54  51  49
55  12  13  4  5  6
56  12  27  23  22  24
57  12  26  23  22  25
58  5  20  18  10  5
59  11  50  47  44  41
60  14  48  44  41  46
61  12  65  60  57  62
62  12  61  57  54  51
63  12  71  66  63  60
64  12  34  29  26  23
65  12  33  29  26  30
66  12  32  29  26  31
67  12  54  51  49  52
68  12  61  57  54  58
69  12  58  54  51  56
70  12  66  63  60  64
71  12  71  66  63  68
72  12  36  32  29  26
73  19  48  44  41  38
74  12  57  54  51  56
75  20  10  5  6  7
76  12  73  69  66  71
77  12  58  54  51  55
78  17  47  44  41  46
79  12  29  26  23  28
80  12  30  26  23  27
81  12  33  29  26  23
82  12  60  57  54  59
83  18  28  23  22  7
84  12  33  29  26  31
85  21  12  4  1  2
86  12  34  29  26  30
87  13  22  7  6  8
88  3  12  4  5  6
89  12  55  51  49  52
90  12  54  51  49  53
91  11  49  47  44  48
92  12  43  38  35  39
93  13  25  22  7  6
94  12  42  38  35  40
95  12  65  60  57  54
96  13  24  22  7  6
97  4  18  10  5  6
98  20  12  4  5  10
99  12  74  69  66  63
100  12  46  41  38  35
101  12  62  57  54  59
102  12  70  66  63  67
103  12  37  32  29  26
104  12  41  38  35  39
105  12  28  23  22  25
106  12  37  32  29  34
107  12  42  38  35  39
108  12  41  38  35  40
109  12  64  60  57  62
110  12  65  60  57  61
111  12  31  26  23  28
112  12  39  35  32  37
113  12  70  66  63  60
114  17  47  44  41  45
115  18  11  5  6  7
116  12  11  5  6  9
117  12  31  26  23  22
118  6  21  19  18  20
119  12  45  41  38  35
120  12  42  38  35  32
121  12  30  26  23  22
122  15  44  41  38  42
123  22  14  12  4  13
124  12  34  29  26  31
125  17  53  49  47  44
126  12  57  54  51  55
127  12  69  66  63  68
128  12  43  38  35  32
129  14  52  49  47  50
130  12  73  69  66  63
131  11  50  47  44  48
132  12  68  63  60  65
133  15  44  41  38  43
134  12  45  41  38  42
135  12  40  35  32  36
136  14  48  44  41  45
137  12  40  35  32  29
138  12  62  57  54  51
139  18  27  23  22  7
140  12  26  23  22  24
141  12  59  54  51  49
142  12  74  69  66  70
143  12  32  29  26  30
144  12  45  41  38  43
145  12  46  41  38  42
146  12  59  54  51  56
147  12  13  4  5  11
148  12  46  41  38  43
149  19  51  49  47  50
150  12  63  60  57  61
151  1  13  4  1  2
152  21  12  4  1  3
153  18  10  5  6  9
154  12  11  5  6  8
155  12  59  54  51  55
156  12  62  57  54  58
157  12  61  57  54  59
158  15  55  51  49  47
159  12  69  66  63  67
160  12  60  57  54  58
161  12  72  69  66  71
162  12  43  38  35  40
163  12  30  26  23  28
164  12  28  23  22  24
165  12  27  23  22  25
166  12  31  26  23  27
167  12  35  32  29  34
168  12  36  32  29  33
169  6  17  16  14  15
170  18  10  5  6  8
171  12  29  26  23  27
172  22  18  10  5  11
173  12  36  32  29  34
174  12  37  32  29  33
175  12  64  60  57  54
176  12  70  66  63  68
177  12  40  35  32  37
178  12  67  63  60  57
179  12  71  66  63  67
180  12  39  35  32  36
181  12  38  35  32  37
182  12  56  51  49  53
183  23  10  5  4  1
184  12  74  69  66  71
185  1  13  4  1  3
186  7  16  14  12  4

Impropers

1  1  1  2  3  4
2  2  6  5  7  8
3  2  6  9  5  7
4  2  5  10  4  6
5  2  5  11  4  6
6  2  4  1  12  5
7  2  4  1  5  13
8  1  14  12  15  16
9  1  18  19  20  10
10  2  22  23  7  24
11  2  22  25  23  7
12  2  23  26  27  22
13  2  23  26  28  22
14  2  26  29  30  23
15  2  26  29  23  31
16  2  29  33  26  32
17  2  29  34  32  26
18  2  32  35  36  29
19  2  32  29  35  37
20  2  35  38  39  32
21  2  35  32  38  40
22  2  38  41  42  35
23  2  38  41  43  35
24  2  41  44  45  38
25  2  41  44  46  38
26  3  44  41  47  48
27  3  47  49  50  44
28  2  49  51  52  47
29  2  49  51  53  47
30  2  51  49  54  55
31  2  51  49  54  56
32  2  54  57  58  51
33  2  54  57  59  51
34  2  57  60  61  54
35  2  57  60  62  54
36  2  60  57  63  64
37  2  60  65  57  63
38  2  63  66  67  60
39  2  63  60  68  66
40  2  66  69  70  63
41  2  66  69  63  71
42  2  69  73  66  72
43  2  69  74  72  66
