LAMMPS data file Created by LigParGen - (Written by Leela S. Dodda)

      55 atoms
      54 bonds
     103 angles
     145 dihedrals
      34 impropers
 
      55 atom types
      54 bond types
     103 angle types
     145 dihedral types
      34 improper types
 
  -12.189120    37.810880 xlo xhi
   -5.843320    44.156680 ylo yhi
   -1.026460    48.973540 zlo zhi

Masses

       1     12.011  
       2     12.011  
       3     12.011  
       4     12.011  
       5     12.011  
       6     12.011  
       7     12.011  
       8     12.011  
       9     12.011  
      10     12.011  
      11     12.011  
      12     12.011  
      13     12.011  
      14     12.011  
      15     12.011  
      16     12.011  
      17     12.011  
      18     12.011  
      19     32.060  
      20      1.008  
      21      1.008  
      22      1.008  
      23      1.008  
      24      1.008  
      25      1.008  
      26      1.008  
      27      1.008  
      28      1.008  
      29      1.008  
      30      1.008  
      31      1.008  
      32      1.008  
      33      1.008  
      34      1.008  
      35      1.008  
      36      1.008  
      37      1.008  
      38      1.008  
      39      1.008  
      40      1.008  
      41      1.008  
      42      1.008  
      43      1.008  
      44      1.008  
      45      1.008  
      46      1.008  
      47      1.008  
      48      1.008  
      49      1.008  
      50      1.008  
      51      1.008  
      52      1.008  
      53      1.008  
      54      1.008  
      55      1.008  

Pair Coeffs 

       1      0.066  3.5000000 
       2      0.066  3.5000000 
       3      0.066  3.5000000 
       4      0.066  3.5000000 
       5      0.066  3.5000000 
       6      0.066  3.5000000 
       7      0.066  3.5000000 
       8      0.066  3.5000000 
       9      0.076  3.5500000 
      10      0.076  3.5500000 
      11      0.066  3.5000000 
      12      0.066  3.5000000 
      13      0.066  3.5000000 
      14      0.066  3.5000000 
      15      0.066  3.5000000 
      16      0.066  3.5000000 
      17      0.066  3.5000000 
      18      0.066  3.5000000 
      19      0.425  3.6000000 
      20      0.030  2.5000000 
      21      0.030  2.5000000 
      22      0.030  2.5000000 
      23      0.030  2.5000000 
      24      0.030  2.5000000 
      25      0.030  2.5000000 
      26      0.030  2.5000000 
      27      0.030  2.5000000 
      28      0.030  2.5000000 
      29      0.030  2.5000000 
      30      0.030  2.5000000 
      31      0.030  2.5000000 
      32      0.030  2.5000000 
      33      0.030  2.5000000 
      34      0.030  2.5000000 
      35      0.030  2.5000000 
      36      0.030  2.5000000 
      37      0.030  2.5000000 
      38      0.030  2.5000000 
      39      0.030  2.5000000 
      40      0.030  2.5000000 
      41      0.030  2.5000000 
      42      0.030  2.5000000 
      43      0.030  2.5000000 
      44      0.030  2.5000000 
      45      0.030  2.5000000 
      46      0.030  2.5000000 
      47      0.030  2.5000000 
      48      0.030  2.5000000 
      49      0.030  2.5000000 
      50      0.030  2.5000000 
      51      0.030  2.5000000 
      52      0.030  2.5000000 
      53      0.030  2.5000000 
      54      0.030  2.5000000 
      55      0.000  0.0000000 

Bond Coeffs 

       1   268.0000     1.5290 
       2   268.0000     1.5290 
       3   268.0000     1.5290 
       4   268.0000     1.5290 
       5   268.0000     1.5290 
       6   268.0000     1.5290 
       7   268.0000     1.5290 
       8   317.0000     1.5100 
       9   549.0000     1.3400 
      10   317.0000     1.5100 
      11   268.0000     1.5290 
      12   268.0000     1.5290 
      13   268.0000     1.5290 
      14   268.0000     1.5290 
      15   268.0000     1.5290 
      16   268.0000     1.5290 
      17   268.0000     1.5290 
      18   222.0000     1.8100 
      19   340.0000     1.0900 
      20   340.0000     1.0900 
      21   340.0000     1.0900 
      22   340.0000     1.0900 
      23   340.0000     1.0900 
      24   340.0000     1.0900 
      25   340.0000     1.0900 
      26   340.0000     1.0900 
      27   340.0000     1.0900 
      28   340.0000     1.0900 
      29   340.0000     1.0900 
      30   340.0000     1.0900 
      31   340.0000     1.0900 
      32   340.0000     1.0900 
      33   340.0000     1.0900 
      34   340.0000     1.0900 
      35   340.0000     1.0900 
      36   340.0000     1.0800 
      37   340.0000     1.0800 
      38   340.0000     1.0900 
      39   340.0000     1.0900 
      40   340.0000     1.0900 
      41   340.0000     1.0900 
      42   340.0000     1.0900 
      43   340.0000     1.0900 
      44   340.0000     1.0900 
      45   340.0000     1.0900 
      46   340.0000     1.0900 
      47   340.0000     1.0900 
      48   340.0000     1.0900 
      49   340.0000     1.0900 
      50   340.0000     1.0900 
      51   340.0000     1.0900 
      52   340.0000     1.0900 
      53   340.0000     1.0900 
      54   274.0000     1.3360 

Angle Coeffs 

       1     58.350    112.700
       2     58.350    112.700
       3     58.350    112.700
       4     58.350    112.700
       5     58.350    112.700
       6     58.350    112.700
       7     63.000    111.100
       8     70.000    124.000
       9     70.000    124.000
      10     63.000    111.100
      11     58.350    112.700
      12     58.350    112.700
      13     58.350    112.700
      14     58.350    112.700
      15     58.350    112.700
      16     58.350    112.700
      17     50.000    108.600
      18     37.500    110.700
      19     37.500    110.700
      20     37.500    110.700
      21     37.500    110.700
      22     37.500    110.700
      23     37.500    110.700
      24     37.500    110.700
      25     37.500    110.700
      26     37.500    110.700
      27     37.500    110.700
      28     37.500    110.700
      29     37.500    110.700
      30     37.500    110.700
      31     37.500    110.700
      32     37.500    110.700
      33     37.500    110.700
      34     37.500    110.700
      35     35.000    117.000
      36     35.000    120.000
      37     35.000    109.500
      38     35.000    109.500
      39     37.500    110.700
      40     37.500    110.700
      41     37.500    110.700
      42     37.500    110.700
      43     37.500    110.700
      44     37.500    110.700
      45     37.500    110.700
      46     37.500    110.700
      47     37.500    110.700
      48     37.500    110.700
      49     37.500    110.700
      50     37.500    110.700
      51     37.500    110.700
      52     37.500    110.700
      53     44.000     96.000
      54     33.000    107.800
      55     35.000    117.000
      56     37.500    110.700
      57     33.000    107.800
      58     33.000    107.800
      59     35.000    109.500
      60     37.500    110.700
      61     33.000    107.800
      62     37.500    110.700
      63     37.500    110.700
      64     37.500    110.700
      65     37.500    110.700
      66     37.500    110.700
      67     33.000    107.800
      68     33.000    107.800
      69     37.500    110.700
      70     37.500    110.700
      71     37.500    110.700
      72     37.500    110.700
      73     33.000    107.800
      74     33.000    107.800
      75     37.500    110.700
      76     33.000    107.800
      77     33.000    107.800
      78     35.000    109.500
      79     33.000    107.800
      80     37.500    110.700
      81     33.000    107.800
      82     37.500    110.700
      83     37.500    110.700
      84     37.500    110.700
      85     37.500    110.700
      86     37.500    110.700
      87     33.000    107.800
      88     33.000    107.800
      89     37.500    110.700
      90     37.500    110.700
      91     33.000    107.800
      92     33.000    107.800
      93     37.500    110.700
      94     35.000    109.500
      95     35.000    109.500
      96     35.000    120.000
      97     37.500    110.700
      98     33.000    107.800
      99     33.000    107.800
     100     37.500    110.700
     101     37.500    110.700
     102     37.500    110.700
     103     37.500    110.700

Dihedral Coeffs  

       1      1.300     -0.200      0.200      0.000 
       2      1.300     -0.200      0.200      0.000 
       3      1.300     -0.200      0.200      0.000 
       4      1.300     -0.200      0.200      0.000 
       5      1.300     -0.200      0.200      0.000 
       6      1.300     -0.200      0.200      0.000 
       7      0.346      0.405     -0.904      0.000 
       8      0.000     14.000      0.000      0.000 
       9      0.346      0.405     -0.904      0.000 
      10      1.300     -0.200      0.200      0.000 
      11      1.300     -0.200      0.200      0.000 
      12      1.300     -0.200      0.200      0.000 
      13      1.300     -0.200      0.200      0.000 
      14      1.300     -0.200      0.200      0.000 
      15      1.300     -0.200      0.200      0.000 
      16      1.262     -0.198      0.465      0.000 
      17      0.000      0.000      0.300      0.000 
      18     -0.759     -0.282      0.680      0.000 
      19      0.000      0.000      0.300      0.000 
      20      0.000      0.000      0.452      0.000 
      21      0.000     14.000      0.000      0.000 
      22      0.000      0.000      0.300      0.000 
      23      0.000      0.000      0.300      0.000 
      24      0.000      0.000      0.300      0.000 
      25      0.000      0.000      0.300      0.000 
      26      0.000      0.000      0.300      0.000 
      27      0.000      0.000      0.300      0.000 
      28      0.000      0.000      0.300      0.000 
      29      0.000      0.000      0.300      0.000 
      30      0.000      0.000     -0.372      0.000 
      31      0.000      0.000      0.300      0.000 
      32      0.000      0.000      0.300      0.000 
      33      0.000      0.000      0.300      0.000 
      34      0.000      0.000      0.300      0.000 
      35      0.000      0.000      0.300      0.000 
      36      0.000      0.000      0.300      0.000 
      37      0.000      0.000      0.300      0.000 
      38      0.000      0.000      0.300      0.000 
      39      0.000      0.000      0.300      0.000 
      40      0.000      0.000      0.300      0.000 
      41      0.000      0.000      0.300      0.000 
      42      0.000      0.000      0.300      0.000 
      43      0.000      0.000      0.300      0.000 
      44      0.000      0.000      0.300      0.000 
      45      0.000      0.000      0.300      0.000 
      46      0.000      0.000      0.300      0.000 
      47      0.000      0.000      0.300      0.000 
      48      0.000     14.000      0.000      0.000 
      49      0.000      0.000      0.300      0.000 
      50      0.000      0.000      0.300      0.000 
      51      0.000      0.000      0.300      0.000 
      52      0.000      0.000      0.300      0.000 
      53      0.000      0.000     -0.372      0.000 
      54      0.000      0.000      0.300      0.000 
      55      0.000      0.000      0.300      0.000 
      56      0.000      0.000      0.366      0.000 
      57      0.000      0.000      0.300      0.000 
      58      0.000      0.000      0.300      0.000 
      59      0.000      0.000      0.300      0.000 
      60      0.000      0.000      0.300      0.000 
      61      0.000      0.000      0.300      0.000 
      62      0.000      0.000      0.300      0.000 
      63      0.000      0.000      0.300      0.000 
      64      0.000      0.000      0.318      0.000 
      65      0.000      0.000      0.300      0.000 
      66      0.000      0.000      0.300      0.000 
      67      0.000      0.000      0.300      0.000 
      68      0.000      0.000      0.318      0.000 
      69      0.000      0.000      0.300      0.000 
      70      0.000      0.000      0.318      0.000 
      71      0.000      0.000      0.300      0.000 
      72      0.000      0.000      0.300      0.000 
      73      0.000      0.000      0.300      0.000 
      74      0.000      0.000      0.300      0.000 
      75      0.000      0.000      0.300      0.000 
      76      0.000      0.000      0.366      0.000 
      77      0.000      0.000      0.480      0.000 
      78      0.000      0.000     -0.372      0.000 
      79      0.000      0.000      0.300      0.000 
      80      0.000      0.000      0.300      0.000 
      81      0.000      0.000      0.300      0.000 
      82      0.000      0.000      0.300      0.000 
      83      0.000      0.000      0.300      0.000 
      84      0.000      0.000      0.300      0.000 
      85      0.000      0.000      0.300      0.000 
      86      0.000      0.000      0.300      0.000 
      87      0.000      0.000      0.300      0.000 
      88      0.000      0.000      0.300      0.000 
      89      0.000      0.000      0.300      0.000 
      90      0.000      0.000      0.300      0.000 
      91      0.000      0.000      0.300      0.000 
      92      0.000      0.000      0.300      0.000 
      93      0.000      0.000      0.300      0.000 
      94      0.000      0.000      0.300      0.000 
      95      0.000      0.000      0.300      0.000 
      96      0.000      0.000      0.300      0.000 
      97      0.000      0.000      0.300      0.000 
      98      0.000      0.000      0.300      0.000 
      99      0.000      0.000      0.300      0.000 
     100      0.000      0.000      0.480      0.000 
     101      0.000      0.000      0.300      0.000 
     102      0.000     -8.000      0.000      0.000 
     103      0.000     14.000      0.000      0.000 
     104      0.000      0.000      0.300      0.000 
     105      0.000      0.000      0.300      0.000 
     106      0.000      0.000      0.300      0.000 
     107      0.000      0.000      0.366      0.000 
     108      0.000      0.000      0.300      0.000 
     109      0.000      0.000      0.300      0.000 
     110      0.000      0.000      0.318      0.000 
     111      0.000      0.000      0.300      0.000 
     112      0.000      0.000      0.300      0.000 
     113      0.000      0.000      0.300      0.000 
     114      0.000      0.000      0.300      0.000 
     115      0.000      0.000      0.300      0.000 
     116      0.000      0.000      0.300      0.000 
     117      0.000      0.000      0.366      0.000 
     118      0.000      0.000      0.300      0.000 
     119      0.000      0.000      0.300      0.000 
     120      0.000      0.000      0.452      0.000 
     121      0.000      0.000      0.300      0.000 
     122      0.000      0.000      0.300      0.000 
     123      0.000      0.000      0.300      0.000 
     124      0.000      0.000      0.300      0.000 
     125      0.000      0.000      0.300      0.000 
     126      0.000      0.000      0.300      0.000 
     127      0.000      0.000      0.300      0.000 
     128      0.000      0.000      0.300      0.000 
     129      0.000      0.000      0.300      0.000 
     130      0.000      0.000     -0.372      0.000 
     131      0.000      0.000      0.300      0.000 
     132      0.000      0.000      0.300      0.000 
     133      0.000      0.000      0.300      0.000 
     134      0.000      0.000      0.300      0.000 
     135      0.000      0.000      0.300      0.000 
     136      0.000      0.000      0.300      0.000 
     137      0.000      0.000      0.300      0.000 
     138      0.000      0.000      0.300      0.000 
     139      0.000      0.000      0.300      0.000 
     140      0.000      0.000      0.300      0.000 
     141      0.000      0.000      0.300      0.000 
     142      0.000     -8.000      0.000      0.000 
     143      0.000      0.000      0.300      0.000 
     144      0.000      0.000      0.300      0.000 
     145      0.000      0.000      0.300      0.000 

Improper Coeffs 

       1      0.000      -1       2 
       2      0.000      -1       2 
       3      0.000      -1       2 
       4      0.000      -1       2 
       5      0.000      -1       2 
       6      0.000      -1       2 
       7      0.000      -1       2 
       8      0.000      -1       2 
       9      0.000      -1       2 
      10      0.000      -1       2 
      11      0.000      -1       2 
      12      0.000      -1       2 
      13      0.000      -1       2 
      14      0.000      -1       2 
      15      0.000      -1       2 
      16      0.000      -1       2 
      17      2.500      -1       2 
      18      2.500      -1       2 
      19      0.000      -1       2 
      20      0.000      -1       2 
      21      0.000      -1       2 
      22      0.000      -1       2 
      23      0.000      -1       2 
      24      0.000      -1       2 
      25      0.000      -1       2 
      26      0.000      -1       2 
      27      0.000      -1       2 
      28      0.000      -1       2 
      29      0.000      -1       2 
      30      0.000      -1       2 
      31      0.000      -1       2 
      32      0.000      -1       2 
      33      0.000      -1       2 
      34      0.000      -1       2 

Atoms 

     1      1      1 -0.23880000    1.000  1.00000  0.00000
     2      1      2 -0.17930000   -0.519  1.00000  0.00000
     3      1      3 -0.17860000   -1.073  1.00000  1.42420
     4      1      4 -0.17930000   -2.600  0.99820  1.42420
     5      1      5 -0.17890000   -3.149  0.99640  2.84992
     6      1      6 -0.18010000   -4.677  0.99641  2.84829
     7      1      7 -0.17660000   -5.226  0.99642  4.27426
     8      1      8 -0.14490000   -6.754  1.06209  4.26989
     9      1      9 -0.19020000   -7.302  1.06431  5.66628
    10      1     10 -0.19700000   -8.445  0.45322  6.00674
    11      1     11 -0.14320000   -8.999  0.44921  7.40047
    12      1     12 -0.17470000   -9.177 -0.98146  7.90483
    13      1     13 -0.18040000   -9.739 -0.99205  9.32513
    14      1     14 -0.17880000   -9.919 -2.42107  9.83149
    15      1     15 -0.17860000  -10.480 -2.42837 11.25198
    16      1     16 -0.18020000  -10.663 -3.85638 11.76218
    17      1     17 -0.18420000  -11.227 -3.86370 13.18432
    18      1     18 0.01240000  -11.405 -5.29215 13.68724
    19      1     19 -0.44140000  -12.076 -5.29311 15.37411
    20      1     20 0.08080000    1.379  0.99870 -1.02646
    21      1     21 0.08080000    1.391  0.11299  0.50853
    22      1     22 0.08080000    1.391  1.88833  0.50631
    23      1     23 0.08840000   -0.880  0.11631 -0.53978
    24      1     24 0.08840000   -0.880  1.88309 -0.53941
    25      1     25 0.08950000   -0.706  1.88324  1.96137
    26      1     26 0.08950000   -0.704  0.11721  1.96082
    27      1     27 0.08940000   -2.967  0.11543  0.88710
    28      1     28 0.08940000   -2.969  1.88157  0.88816
    29      1     29 0.08990000   -2.781  1.87969  3.38562
    30      1     30 0.08990000   -2.781  0.11313  3.38562
    31      1     31 0.08980000   -5.046  0.11406  2.31177
    32      1     32 0.08980000   -5.042  1.88035  2.31222
    33      1     33 0.09180000   -4.821  1.85850  4.81975
    34      1     34 0.09180000   -4.889  0.09477  4.80052
    35      1     35 0.09770000   -7.153  0.21361  3.70066
    36      1     36 0.09770000   -7.075  1.98167  3.76699
    37      1     37 0.13650000   -6.727  1.59439  6.42274
    38      1     38 0.13540000   -9.022 -0.07383  5.24988
    39      1     39 0.09550000   -9.964  0.96745  7.39593
    40      1     40 0.09550000   -8.339  1.00203  8.08212
    41      1     41 0.09270000   -8.212 -1.50551  7.88831
    42      1     42 0.09270000   -9.853 -1.52954  7.23648
    43      1     43 0.09010000  -10.704 -0.46981  9.34266
    44      1     44 0.09010000   -9.061 -0.44631  9.99189
    45      1     45 0.09090000   -8.954 -2.94231  9.81249
    46      1     46 0.09090000  -10.598 -2.96503  9.16362
    47      1     47 0.09140000  -11.443 -1.90363 11.26877
    48      1     48 0.09140000   -9.800 -1.88317 11.91738
    49      1     49 0.09160000   -9.699 -4.37896 11.74421
    50      1     50 0.09160000  -11.342 -4.40119 11.09425
    51      1     51 0.10180000  -12.189 -3.33674 13.19212
    52      1     52 0.10180000  -10.543 -3.31289 13.84300
    53      1     53 0.12600000  -10.446 -5.82019 13.69413
    54      1     54 0.12600000  -12.095 -5.84332 13.03946
    55      1     55 0.14530000  -11.062 -4.62390 15.94247

Bonds 

     1      1      2      1
     2      2      3      2
     3      3      4      3
     4      4      5      4
     5      5      6      5
     6      6      7      6
     7      7      8      7
     8      8      9      8
     9      9     10      9
    10     10     11     10
    11     11     12     11
    12     12     13     12
    13     13     14     13
    14     14     15     14
    15     15     16     15
    16     16     17     16
    17     17     18     17
    18     18     19     18
    19     19     20      1
    20     20     21      1
    21     21     22      1
    22     22     23      2
    23     23     24      2
    24     24     25      3
    25     25     26      3
    26     26     27      4
    27     27     28      4
    28     28     29      5
    29     29     30      5
    30     30     31      6
    31     31     32      6
    32     32     33      7
    33     33     34      7
    34     34     35      8
    35     35     36      8
    36     36     37      9
    37     37     38     10
    38     38     39     11
    39     39     40     11
    40     40     41     12
    41     41     42     12
    42     42     43     13
    43     43     44     13
    44     44     45     14
    45     45     46     14
    46     46     47     15
    47     47     48     15
    48     48     49     16
    49     49     50     16
    50     50     51     17
    51     51     52     17
    52     52     53     18
    53     53     54     18
    54     54     55     19

Angles 

     1      1      1      2      3
     2      2      2      3      4
     3      3      3      4      5
     4      4      4      5      6
     5      5      5      6      7
     6      6      6      7      8
     7      7      7      8      9
     8      8      8      9     10
     9      9      9     10     11
    10     10     10     11     12
    11     11     11     12     13
    12     12     12     13     14
    13     13     13     14     15
    14     14     14     15     16
    15     15     15     16     17
    16     16     16     17     18
    17     17     17     18     19
    18     18      2      1     20
    19     19      2      1     21
    20     20      2      1     22
    21     21      1      2     23
    22     22      1      2     24
    23     23      2      3     25
    24     24      2      3     26
    25     25      3      4     27
    26     26      3      4     28
    27     27      4      5     29
    28     28      4      5     30
    29     29      5      6     31
    30     30      5      6     32
    31     31      6      7     33
    32     32      6      7     34
    33     33      7      8     35
    34     34      7      8     36
    35     35      8      9     37
    36     36      9     10     38
    37     37     10     11     39
    38     38     10     11     40
    39     39     11     12     41
    40     40     11     12     42
    41     41     12     13     43
    42     42     12     13     44
    43     43     13     14     45
    44     44     13     14     46
    45     45     14     15     47
    46     46     14     15     48
    47     47     15     16     49
    48     48     15     16     50
    49     49     16     17     51
    50     50     16     17     52
    51     51     17     18     53
    52     52     17     18     54
    53     53     18     19     55
    54     54     47     15     48
    55     55     11     10     38
    56     56     12     11     40
    57     57     27      4     28
    58     58     41     12     42
    59     59     19     18     54
    60     60     17     16     50
    61     61     20      1     21
    62     62      5      4     27
    63     63      7      6     32
    64     64      7      6     31
    65     65      6      5     30
    66     66      5      4     28
    67     67     33      7     34
    68     68     39     11     40
    69     69      8      7     33
    70     70     18     17     51
    71     71     12     11     39
    72     72     15     14     46
    73     73     45     14     46
    74     74     20      1     22
    75     75     13     12     42
    76     76     29      5     30
    77     77     51     17     52
    78     78      9      8     36
    79     79     35      8     36
    80     80     16     15     47
    81     81     49     16     50
    82     82      4      3     25
    83     83     18     17     52
    84     84      4      3     26
    85     85     15     14     45
    86     86      8      7     34
    87     87     53     18     54
    88     88     25      3     26
    89     89     16     15     48
    90     90     14     13     43
    91     91     43     13     44
    92     92     31      6     32
    93     93      3      2     23
    94     94     19     18     53
    95     95      9      8     35
    96     96     10      9     37
    97     97     17     16     49
    98     98     23      2     24
    99     99     21      1     22
   100    100      3      2     24
   101    101     13     12     41
   102    102      6      5     29
   103    103     14     13     44

Dihedrals

     1      1      4      3      2      1 
     2      2      5      4      3      2 
     3      3      6      5      4      3 
     4      4      7      6      5      4 
     5      5      8      7      6      5 
     6      6      9      8      7      6 
     7      7     10      9      8      7 
     8      8     11     10      9      8 
     9      9     12     11     10      9 
    10     10     13     12     11     10 
    11     11     14     13     12     11 
    12     12     15     14     13     12 
    13     13     16     15     14     13 
    14     14     17     16     15     14 
    15     15     18     17     16     15 
    16     16     19     18     17     16 
    17     17     20      1      2      3 
    18     18     55     19     18     17 
    19     19     50     16     15     48 
    20     20     51     17     18     19 
    21     21     38     10      9      8 
    22     22     54     18     17     16 
    23     23     25      3      4      5 
    24     24     28      4      3      2 
    25     25     29      5      4     28 
    26     26     30      5      4     27 
    27     27     43     13     12     41 
    28     28     47     15     14     13 
    29     29     50     16     15     14 
    30     30     35      8      9     10 
    31     31     51     17     16     15 
    32     32     23      2      1     21 
    33     33     48     15     16     17 
    34     34     24      2      1     20 
    35     35     50     16     17     18 
    36     36     47     15     14     45 
    37     37     26      3      2      1 
    38     38     33      7      6     31 
    39     39     23      2      3      4 
    40     40     32      6      7      8 
    41     41     27      4      3     25 
    42     42     32      6      5     30 
    43     43     51     17     16     50 
    44     44     52     17     16     49 
    45     45     35      8      7     33 
    46     46     44     13     12     41 
    47     47     43     13     12     42 
    48     48     37      9     10     11 
    49     49     45     14     13     44 
    50     50     54     18     17     52 
    51     51     49     16     15     14 
    52     52     49     16     17     18 
    53     53     36      8      9     10 
    54     54     42     12     11     40 
    55     55     30      5      4      3 
    56     56     34      7      8      9 
    57     57     22      1      2      3 
    58     58     33      7      6      5 
    59     59     51     17     16     49 
    60     60     40     11     12     13 
    61     61     47     15     16     17 
    62     62     24      2      1     22 
    63     63     46     14     13     43 
    64     64     37      9      8     35 
    65     65     25      3      2     23 
    66     66     54     18     17     51 
    67     67     53     18     17     52 
    68     68     39     11     10     38 
    69     69     44     13     14     15 
    70     70     40     11     10     38 
    71     71     52     17     16     15 
    72     72     21      1      2      3 
    73     73     27      4      5      6 
    74     74     36      8      7     33 
    75     75     35      8      7     34 
    76     76     41     12     11     10 
    77     77     55     19     18     54 
    78     78     39     11     10      9 
    79     79     42     12     11     39 
    80     80     41     12     11     40 
    81     81     48     15     14     46 
    82     82     48     15     14     13 
    83     83     34      7      6     32 
    84     84     41     12     11     39 
    85     85     45     14     15     16 
    86     86     24      2      3      4 
    87     87     28      4      3     25 
    88     88     27      4      3     26 
    89     89     28      4      5      6 
    90     90     30      5      6      7 
    91     91     39     11     12     13 
    92     92     24      2      1     21 
    93     93     23      2      1     22 
    94     94     31      6      7      8 
    95     95     34      7      6      5 
    96     96     27      4      3      2 