LAMMPS data file Created by LigParGen - (Written by Leela S. Dodda)

      54 atoms
      53 bonds
     102 angles
     142 dihedrals
      34 impropers
 
      54 atom types
      53 bond types
     102 angle types
     142 dihedral types
      34 improper types
 
  -12.177210    37.822790 xlo xhi
   -5.809830    44.190170 ylo yhi
   -1.026440    48.973560 zlo zhi

Masses

       1     12.011  
       2     12.011  
       3     12.011  
       4     12.011  
       5     12.011  
       6     12.011  
       7     12.011  
       8     12.011  
       9     12.011  
      10     12.011  
      11     12.011  
      12     12.011  
      13     12.011  
      14     12.011  
      15     12.011  
      16     12.011  
      17     12.011  
      18     12.011  
      19     32.060  
      20      1.008  
      21      1.008  
      22      1.008  
      23      1.008  
      24      1.008  
      25      1.008  
      26      1.008  
      27      1.008  
      28      1.008  
      29      1.008  
      30      1.008  
      31      1.008  
      32      1.008  
      33      1.008  
      34      1.008  
      35      1.008  
      36      1.008  
      37      1.008  
      38      1.008  
      39      1.008  
      40      1.008  
      41      1.008  
      42      1.008  
      43      1.008  
      44      1.008  
      45      1.008  
      46      1.008  
      47      1.008  
      48      1.008  
      49      1.008  
      50      1.008  
      51      1.008  
      52      1.008  
      53      1.008  
      54      1.008  

Pair Coeffs 

       1      0.066  3.5000000 
       2      0.066  3.5000000 
       3      0.066  3.5000000 
       4      0.066  3.5000000 
       5      0.066  3.5000000 
       6      0.066  3.5000000 
       7      0.066  3.5000000 
       8      0.066  3.5000000 
       9      0.076  3.5500000 
      10      0.076  3.5500000 
      11      0.066  3.5000000 
      12      0.066  3.5000000 
      13      0.066  3.5000000 
      14      0.066  3.5000000 
      15      0.066  3.5000000 
      16      0.066  3.5000000 
      17      0.066  3.5000000 
      18      0.066  3.5000000 
      19      0.355  3.5500000 
      20      0.030  2.5000000 
      21      0.030  2.5000000 
      22      0.030  2.5000000 
      23      0.030  2.5000000 
      24      0.030  2.5000000 
      25      0.030  2.5000000 
      26      0.030  2.5000000 
      27      0.030  2.5000000 
      28      0.030  2.5000000 
      29      0.030  2.5000000 
      30      0.030  2.5000000 
      31      0.030  2.5000000 
      32      0.030  2.5000000 
      33      0.030  2.5000000 
      34      0.030  2.5000000 
      35      0.030  2.5000000 
      36      0.030  2.5000000 
      37      0.030  2.5000000 
      38      0.030  2.5000000 
      39      0.030  2.5000000 
      40      0.030  2.5000000 
      41      0.030  2.5000000 
      42      0.030  2.5000000 
      43      0.030  2.5000000 
      44      0.030  2.5000000 
      45      0.030  2.5000000 
      46      0.030  2.5000000 
      47      0.030  2.5000000 
      48      0.030  2.5000000 
      49      0.030  2.5000000 
      50      0.030  2.5000000 
      51      0.030  2.5000000 
      52      0.030  2.5000000 
      53      0.030  2.5000000 
      54      0.030  2.5000000 

Bond Coeffs 

       1   268.0000     1.5290 
       2   268.0000     1.5290 
       3   268.0000     1.5290 
       4   268.0000     1.5290 
       5   268.0000     1.5290 
       6   268.0000     1.5290 
       7   268.0000     1.5290 
       8   317.0000     1.5100 
       9   549.0000     1.3400 
      10   317.0000     1.5100 
      11   268.0000     1.5290 
      12   268.0000     1.5290 
      13   268.0000     1.5290 
      14   268.0000     1.5290 
      15   268.0000     1.5290 
      16   268.0000     1.5290 
      17   268.0000     1.5290 
      18   340.0000     1.7700 
      19   340.0000     1.0900 
      20   340.0000     1.0900 
      21   340.0000     1.0900 
      22   340.0000     1.0900 
      23   340.0000     1.0900 
      24   340.0000     1.0900 
      25   340.0000     1.0900 
      26   340.0000     1.0900 
      27   340.0000     1.0900 
      28   340.0000     1.0900 
      29   340.0000     1.0900 
      30   340.0000     1.0900 
      31   340.0000     1.0900 
      32   340.0000     1.0900 
      33   340.0000     1.0900 
      34   340.0000     1.0900 
      35   340.0000     1.0900 
      36   340.0000     1.0800 
      37   340.0000     1.0800 
      38   340.0000     1.0900 
      39   340.0000     1.0900 
      40   340.0000     1.0900 
      41   340.0000     1.0900 
      42   340.0000     1.0900 
      43   340.0000     1.0900 
      44   340.0000     1.0900 
      45   340.0000     1.0900 
      46   340.0000     1.0900 
      47   340.0000     1.0900 
      48   340.0000     1.0900 
      49   340.0000     1.0900 
      50   340.0000     1.0900 
      51   340.0000     1.0900 
      52   340.0000     1.0900 
      53   340.0000     1.0900 

Angle Coeffs 

       1     58.350    112.700
       2     58.350    112.700
       3     58.350    112.700
       4     58.350    112.700
       5     58.350    112.700
       6     58.350    112.700
       7     63.000    111.100
       8     70.000    124.000
       9     70.000    124.000
      10     63.000    111.100
      11     58.350    112.700
      12     58.350    112.700
      13     58.350    112.700
      14     58.350    112.700
      15     58.350    112.700
      16     58.350    112.700
      17     50.000    108.600
      18     37.500    110.700
      19     37.500    110.700
      20     37.500    110.700
      21     37.500    110.700
      22     37.500    110.700
      23     37.500    110.700
      24     37.500    110.700
      25     37.500    110.700
      26     37.500    110.700
      27     37.500    110.700
      28     37.500    110.700
      29     37.500    110.700
      30     37.500    110.700
      31     37.500    110.700
      32     37.500    110.700
      33     37.500    110.700
      34     37.500    110.700
      35     35.000    117.000
      36     35.000    120.000
      37     35.000    109.500
      38     35.000    109.500
      39     37.500    110.700
      40     37.500    110.700
      41     37.500    110.700
      42     37.500    110.700
      43     37.500    110.700
      44     37.500    110.700
      45     37.500    110.700
      46     37.500    110.700
      47     37.500    110.700
      48     37.500    110.700
      49     37.500    110.700
      50     37.500    110.700
      51     37.500    110.700
      52     37.500    110.700
      53     33.000    107.800
      54     35.000    117.000
      55     37.500    110.700
      56     33.000    107.800
      57     33.000    107.800
      58     35.000    109.500
      59     37.500    110.700
      60     33.000    107.800
      61     37.500    110.700
      62     37.500    110.700
      63     37.500    110.700
      64     37.500    110.700
      65     37.500    110.700
      66     33.000    107.800
      67     33.000    107.800
      68     37.500    110.700
      69     37.500    110.700
      70     37.500    110.700
      71     37.500    110.700
      72     33.000    107.800
      73     33.000    107.800
      74     37.500    110.700
      75     33.000    107.800
      76     33.000    107.800
      77     35.000    109.500
      78     33.000    107.800
      79     37.500    110.700
      80     33.000    107.800
      81     37.500    110.700
      82     37.500    110.700
      83     37.500    110.700
      84     37.500    110.700
      85     37.500    110.700
      86     33.000    107.800
      87     33.000    107.800
      88     37.500    110.700
      89     37.500    110.700
      90     33.000    107.800
      91     33.000    107.800
      92     37.500    110.700
      93     35.000    109.500
      94     35.000    109.500
      95     35.000    120.000
      96     37.500    110.700
      97     33.000    107.800
      98     33.000    107.800
      99     37.500    110.700
     100     37.500    110.700
     101     37.500    110.700
     102     37.500    110.700

Dihedral Coeffs  

       1      1.300     -0.200      0.200      0.000 
       2      1.300     -0.200      0.200      0.000 
       3      1.300     -0.200      0.200      0.000 
       4      1.300     -0.200      0.200      0.000 
       5      1.300     -0.200      0.200      0.000 
       6      1.300     -0.200      0.200      0.000 
       7      0.346      0.405     -0.904      0.000 
       8      0.000     14.000      0.000      0.000 
       9      0.346      0.405     -0.904      0.000 
      10      1.300     -0.200      0.200      0.000 
      11      1.300     -0.200      0.200      0.000 
      12      1.300     -0.200      0.200      0.000 
      13      1.300     -0.200      0.200      0.000 
      14      1.300     -0.200      0.200      0.000 
      15      1.300     -0.200      0.200      0.000 
      16      1.262     -0.198      0.465      0.000 
      17      0.000      0.000      0.300      0.000 
      18      0.000      0.000      0.300      0.000 
      19      0.000      0.000      0.452      0.000 
      20      0.000     14.000      0.000      0.000 
      21      0.000      0.000      0.300      0.000 
      22      0.000      0.000      0.300      0.000 
      23      0.000      0.000      0.300      0.000 
      24      0.000      0.000      0.300      0.000 
      25      0.000      0.000      0.300      0.000 
      26      0.000      0.000      0.300      0.000 
      27      0.000      0.000      0.300      0.000 
      28      0.000      0.000      0.300      0.000 
      29      0.000      0.000     -0.372      0.000 
      30      0.000      0.000      0.300      0.000 
      31      0.000      0.000      0.300      0.000 
      32      0.000      0.000      0.300      0.000 
      33      0.000      0.000      0.300      0.000 
      34      0.000      0.000      0.300      0.000 
      35      0.000      0.000      0.300      0.000 
      36      0.000      0.000      0.300      0.000 
      37      0.000      0.000      0.300      0.000 
      38      0.000      0.000      0.300      0.000 
      39      0.000      0.000      0.300      0.000 
      40      0.000      0.000      0.300      0.000 
      41      0.000      0.000      0.300      0.000 
      42      0.000      0.000      0.300      0.000 
      43      0.000      0.000      0.300      0.000 
      44      0.000      0.000      0.300      0.000 
      45      0.000      0.000      0.300      0.000 
      46      0.000      0.000      0.300      0.000 
      47      0.000     14.000      0.000      0.000 
      48      0.000      0.000      0.300      0.000 
      49      0.000      0.000      0.300      0.000 
      50      0.000      0.000      0.300      0.000 
      51      0.000      0.000      0.300      0.000 
      52      0.000      0.000     -0.372      0.000 
      53      0.000      0.000      0.300      0.000 
      54      0.000      0.000      0.300      0.000 
      55      0.000      0.000      0.366      0.000 
      56      0.000      0.000      0.300      0.000 
      57      0.000      0.000      0.300      0.000 
      58      0.000      0.000      0.300      0.000 
      59      0.000      0.000      0.300      0.000 
      60      0.000      0.000      0.300      0.000 
      61      0.000      0.000      0.300      0.000 
      62      0.000      0.000      0.300      0.000 
      63      0.000      0.000      0.318      0.000 
      64      0.000      0.000      0.300      0.000 
      65      0.000      0.000      0.300      0.000 
      66      0.000      0.000      0.300      0.000 
      67      0.000      0.000      0.318      0.000 
      68      0.000      0.000      0.300      0.000 
      69      0.000      0.000      0.318      0.000 
      70      0.000      0.000      0.300      0.000 
      71      0.000      0.000      0.300      0.000 
      72      0.000      0.000      0.300      0.000 
      73      0.000      0.000      0.300      0.000 
      74      0.000      0.000      0.300      0.000 
      75      0.000      0.000      0.366      0.000 
      76      0.000      0.000     -0.372      0.000 
      77      0.000      0.000      0.300      0.000 
      78      0.000      0.000      0.300      0.000 
      79      0.000      0.000      0.300      0.000 
      80      0.000      0.000      0.300      0.000 
      81      0.000      0.000      0.300      0.000 
      82      0.000      0.000      0.300      0.000 
      83      0.000      0.000      0.300      0.000 
      84      0.000      0.000      0.300      0.000 
      85      0.000      0.000      0.300      0.000 
      86      0.000      0.000      0.300      0.000 
      87      0.000      0.000      0.300      0.000 
      88      0.000      0.000      0.300      0.000 
      89      0.000      0.000      0.300      0.000 
      90      0.000      0.000      0.300      0.000 
      91      0.000      0.000      0.300      0.000 
      92      0.000      0.000      0.300      0.000 
      93      0.000      0.000      0.300      0.000 
      94      0.000      0.000      0.300      0.000 
      95      0.000      0.000      0.300      0.000 
      96      0.000      0.000      0.300      0.000 
      97      0.000      0.000      0.300      0.000 
      98      0.000      0.000      0.300      0.000 
      99      0.000      0.000      0.300      0.000 
     100      0.000     -8.000      0.000      0.000 
     101      0.000     14.000      0.000      0.000 
     102      0.000      0.000      0.300      0.000 
     103      0.000      0.000      0.300      0.000 
     104      0.000      0.000      0.300      0.000 
     105      0.000      0.000      0.366      0.000 
     106      0.000      0.000      0.300      0.000 
     107      0.000      0.000      0.300      0.000 
     108      0.000      0.000      0.318      0.000 
     109      0.000      0.000      0.300      0.000 
     110      0.000      0.000      0.300      0.000 
     111      0.000      0.000      0.300      0.000 
     112      0.000      0.000      0.300      0.000 
     113      0.000      0.000      0.300      0.000 
     114      0.000      0.000      0.300      0.000 
     115      0.000      0.000      0.366      0.000 
     116      0.000      0.000      0.300      0.000 
     117      0.000      0.000      0.300      0.000 
     118      0.000      0.000      0.452      0.000 
     119      0.000      0.000      0.300      0.000 
     120      0.000      0.000      0.300      0.000 
     121      0.000      0.000      0.300      0.000 
     122      0.000      0.000      0.300      0.000 
     123      0.000      0.000      0.300      0.000 
     124      0.000      0.000      0.300      0.000 
     125      0.000      0.000      0.300      0.000 
     126      0.000      0.000      0.300      0.000 
     127      0.000      0.000     -0.372      0.000 
     128      0.000      0.000      0.300      0.000 
     129      0.000      0.000      0.300      0.000 
     130      0.000      0.000      0.300      0.000 
     131      0.000      0.000      0.300      0.000 
     132      0.000      0.000      0.300      0.000 
     133      0.000      0.000      0.300      0.000 
     134      0.000      0.000      0.300      0.000 
     135      0.000      0.000      0.300      0.000 
     136      0.000      0.000      0.300      0.000 
     137      0.000      0.000      0.300      0.000 
     138      0.000      0.000      0.300      0.000 
     139      0.000     -8.000      0.000      0.000 
     140      0.000      0.000      0.300      0.000 
     141      0.000      0.000      0.300      0.000 
     142      0.000      0.000      0.300      0.000 

Improper Coeffs 

       1      0.000      -1       2 
       2      0.000      -1       2 
       3      0.000      -1       2 
       4      0.000      -1       2 
       5      0.000      -1       2 
       6      0.000      -1       2 
       7      0.000      -1       2 
       8      0.000      -1       2 
       9      0.000      -1       2 
      10      0.000      -1       2 
      11      0.000      -1       2 
      12      0.000      -1       2 
      13      0.000      -1       2 
      14      0.000      -1       2 
      15      0.000      -1       2 
      16      0.000      -1       2 
      17      2.500      -1       2 
      18      2.500      -1       2 
      19      0.000      -1       2 
      20      0.000      -1       2 
      21      0.000      -1       2 
      22      0.000      -1       2 
      23      0.000      -1       2 
      24      0.000      -1       2 
      25      0.000      -1       2 
      26      0.000      -1       2 
      27      0.000      -1       2 
      28      0.000      -1       2 
      29      0.000      -1       2 
      30      0.000      -1       2 
      31      0.000      -1       2 
      32      0.000      -1       2 
      33      0.000      -1       2 
      34      0.000      -1       2 

Atoms 

     1      1      1 -0.20940000    1.000  1.00000  0.00000
     2      1      2 -0.15750000   -0.520  1.00000  0.00000
     3      1      3 -0.15660000   -1.072  1.00000  1.42437
     4      1      4 -0.15720000   -2.599  0.99820  1.42437
     5      1      5 -0.15730000   -3.147  1.00001  2.85129
     6      1      6 -0.15800000   -4.674  1.00001  2.85129
     7      1      7 -0.15490000   -5.223  1.00002  4.27707
     8      1      8 -0.12340000   -6.751  1.06568  4.27270
     9      1      9 -0.18230000   -7.298  1.06789  5.66857
    10      1     10 -0.15960000   -8.445  0.46200  6.00948
    11      1     11 -0.12900000   -8.996  0.45997  7.40464
    12      1     12 -0.15360000   -9.175 -0.96952  7.91233
    13      1     13 -0.15870000   -9.734 -0.97646  9.33316
    14      1     14 -0.15810000   -9.916 -2.40375  9.84428
    15      1     15 -0.15660000  -10.474 -2.40740 11.26620
    16      1     16 -0.16840000  -10.658 -3.83430 11.77977
    17      1     17 -0.15050000  -11.219 -3.83962 13.20459
    18      1     18 -0.08590000  -11.403 -5.27505 13.71238
    19      1     19 -0.89780000  -12.072 -5.23072 15.41664
    20      1     20 0.06990000    1.379  0.99870 -1.02644
    21      1     21 0.06990000    1.391  0.11286  0.50860
    22      1     22 0.06990000    1.390  1.88860  0.50646
    23      1     23 0.07680000   -0.880  0.11627 -0.53980
    24      1     24 0.07680000   -0.880  1.88309 -0.54084
    25      1     25 0.07890000   -0.707  1.88543  1.95906
    26      1     26 0.07890000   -0.701  0.11944  1.96190
    27      1     27 0.07750000   -2.967  0.11376  0.89073
    28      1     28 0.07750000   -2.969  1.87905  0.88822
    29      1     29 0.07930000   -2.779  1.88569  3.38424
    30      1     30 0.07930000   -2.777  0.11903  3.38901
    31      1     31 0.07720000   -5.044  0.11766  2.31516
    32      1     32 0.07720000   -5.040  1.88390  2.31422
    33      1     33 0.08140000   -4.818  1.86324  4.82134
    34      1     34 0.08140000   -4.885  0.09890  4.80375
    35      1     35 0.08210000   -7.150  0.21642  3.70442
    36      1     36 0.08210000   -7.073  1.98450  3.77024
    37      1     37 0.11970000   -6.724  1.59311  6.42891
    38      1     38 0.11630000   -9.026 -0.06177  5.25294
    39      1     39 0.08340000   -9.962  0.97867  7.40012
    40      1     40 0.08340000   -8.336  1.01292  8.08407
    41      1     41 0.07870000   -8.211 -1.49428  7.89343
    42      1     42 0.07870000   -9.854 -1.51789  7.24691
    43      1     43 0.07650000  -10.698 -0.45295  9.35152
    44      1     44 0.07650000   -9.053 -0.43102  9.99797
    45      1     45 0.07360000   -8.952 -2.92703  9.82385
    46      1     46 0.07360000  -10.596 -2.94894  9.17874
    47      1     47 0.07450000  -11.436 -1.88137 11.28381
    48      1     48 0.07450000   -9.791 -1.86171 11.92915
    49      1     49 0.06420000   -9.695 -4.35850 11.75984
    50      1     50 0.06420000  -11.338 -4.37772 11.11293
    51      1     51 0.07860000  -12.177 -3.30307 13.21087
    52      1     52 0.07860000  -10.533 -3.28469 13.85854
    53      1     53 0.03190000  -10.437 -5.79249 13.66080
    54      1     54 0.03190000  -12.066 -5.80983 13.02146

Bonds 

     1      1      2      1
     2      2      3      2
     3      3      4      3
     4      4      5      4
     5      5      6      5
     6      6      7      6
     7      7      8      7
     8      8      9      8
     9      9     10      9
    10     10     11     10
    11     11     12     11
    12     12     13     12
    13     13     14     13
    14     14     15     14
    15     15     16     15
    16     16     17     16
    17     17     18     17
    18     18     19     18
    19     19     20      1
    20     20     21      1
    21     21     22      1
    22     22     23      2
    23     23     24      2
    24     24     25      3
    25     25     26      3
    26     26     27      4
    27     27     28      4
    28     28     29      5
    29     29     30      5
    30     30     31      6
    31     31     32      6
    32     32     33      7
    33     33     34      7
    34     34     35      8
    35     35     36      8
    36     36     37      9
    37     37     38     10
    38     38     39     11
    39     39     40     11
    40     40     41     12
    41     41     42     12
    42     42     43     13
    43     43     44     13
    44     44     45     14
    45     45     46     14
    46     46     47     15
    47     47     48     15
    48     48     49     16
    49     49     50     16
    50     50     51     17
    51     51     52     17
    52     52     53     18
    53     53     54     18

Angles 

     1      1      1      2      3
     2      2      2      3      4
     3      3      3      4      5
     4      4      4      5      6
     5      5      5      6      7
     6      6      6      7      8
     7      7      7      8      9
     8      8      8      9     10
     9      9      9     10     11
    10     10     10     11     12
    11     11     11     12     13
    12     12     12     13     14
    13     13     13     14     15
    14     14     14     15     16
    15     15     15     16     17
    16     16     16     17     18
    17     17     17     18     19
    18     18      2      1     20
    19     19      2      1     21
    20     20      2      1     22
    21     21      1      2     23
    22     22      1      2     24
    23     23      2      3     25
    24     24      2      3     26
    25     25      3      4     27
    26     26      3      4     28
    27     27      4      5     29
    28     28      4      5     30
    29     29      5      6     31
    30     30      5      6     32
    31     31      6      7     33
    32     32      6      7     34
    33     33      7      8     35
    34     34      7      8     36
    35     35      8      9     37
    36     36      9     10     38
    37     37     10     11     39
    38     38     10     11     40
    39     39     11     12     41
    40     40     11     12     42
    41     41     12     13     43
    42     42     12     13     44
    43     43     13     14     45
    44     44     13     14     46
    45     45     14     15     47
    46     46     14     15     48
    47     47     15     16     49
    48     48     15     16     50
    49     49     16     17     51
    50     50     16     17     52
    51     51     17     18     53
    52     52     17     18     54
    53     53     47     15     48
    54     54     11     10     38
    55     55     12     11     40
    56     56     27      4     28
    57     57     41     12     42
    58     58     19     18     54
    59     59     17     16     50
    60     60     20      1     21
    61     61      5      4     27
    62     62      7      6     32
    63     63      7      6     31
    64     64      6      5     30
    65     65      5      4     28
    66     66     33      7     34
    67     67     39     11     40
    68     68      8      7     33
    69     69     18     17     51
    70     70     12     11     39
    71     71     15     14     46
    72     72     45     14     46
    73     73     20      1     22
    74     74     13     12     42
    75     75     29      5     30
    76     76     51     17     52
    77     77      9      8     36
    78     78     35      8     36
    79     79     16     15     47
    80     80     49     16     50
    81     81      4      3     25
    82     82     18     17     52
    83     83      4      3     26
    84     84     15     14     45
    85     85      8      7     34
    86     86     53     18     54
    87     87     25      3     26
    88     88     16     15     48
    89     89     14     13     43
    90     90     43     13     44
    91     91     31      6     32
    92     92      3      2     23
    93     93     19     18     53
    94     94      9      8     35
    95     95     10      9     37
    96     96     17     16     49
    97     97     23      2     24
    98     98     21      1     22
    99     99      3      2     24
   100    100     13     12     41
   101    101      6      5     29
   102    102     14     13     44

Dihedrals

     1      1      4      3      2      1 
     2      2      5      4      3      2 
     3      3      6      5      4      3 
     4      4      7      6      5      4 
     5      5      8      7      6      5 
     6      6      9      8      7      6 
     7      7     10      9      8      7 
     8      8     11     10      9      8 
     9      9     12     11     10      9 
    10     10     13     12     11     10 
    11     11     14     13     12     11 
    12     12     15     14     13     12 
    13     13     16     15     14     13 
    14     14     17     16     15     14 
    15     15     18     17     16     15 
    16     16     19     18     17     16 
    17     17     20      1      2      3 
    18     18     50     16     15     48 
    19     19     51     17     18     19 
    20     20     38     10      9      8 
    21     21     54     18     17     16 
    22     22     25      3      4      5 
    23     23     28      4      3      2 
    24     24     29      5      4     28 
    25     25     30      5      4     27 
    26     26     43     13     12     41 
    27     27     47     15     14     13 
    28     28     50     16     15     14 
    29     29     35      8      9     10 
    30     30     51     17     16     15 
    31     31     23      2      1     21 
    32     32     48     15     16     17 
    33     33     24      2      1     20 
    34     34     50     16     17     18 
    35     35     47     15     14     45 
    36     36     26      3      2      1 
    37     37     33      7      6     31 
    38     38     23      2      3      4 
    39     39     32      6      7      8 
    40     40     27      4      3     25 
    41     41     32      6      5     30 
    42     42     51     17     16     50 
    43     43     52     17     16     49 
    44     44     35      8      7     33 
    45     45     44     13     12     41 
    46     46     43     13     12     42 
    47     47     37      9     10     11 
    48     48     45     14     13     44 
    49     49     54     18     17     52 
    50     50     49     16     15     14 
    51     51     49     16     17     18 
    52     52     36      8      9     10 
    53     53     49     16     15     47 
    54     54     30      5      4      3 
    55     55     34      7      8      9 
    56     56     22      1      2      3 
    57     57     33      7      6      5 
    58     58     51     17     16     49 
    59     59     40     11     12     13 
    60     60     47     15     16     17 
    61     61     24      2      1     22 
    62     62     46     14     13     43 
    63     63     37      9      8     35 
    64     64     25      3      2     23 
    65     65     54     18     17     51 
    66     66     53     18     17     52 
    67     67     39     11     10     38 
    68     68     44     13     14     15 
    69     69     40     11     10     38 
    70     70     52     17     16     15 
    71     71     21      1      2      3 
    72     72     27      4      5      6 
    73     73     36      8      7     33 
    74     74     35      8      7     34 
    75     75     41     12     11     10 
    76     76     39     11     10      9 
    77     77     42     12     11     39 
    78     78     41     12     11     40 
    79     79     48     15     14     46 
    80     80     48     15     14     13 
    81     81     34      7      6     32 
    82     82     41     12     11     39 
    83     83     42     12     11     40 
    84     84     45     14     15     16 
    85     85     24      2      3      4 
    86     86     28      4      3     25 
    87     87     27      4      3     26 
    88     88     28      4      5      6 
    89     89     30      5      6      7 
    90     90     39     11     12     13 
    91     91     24      2      1     21 
    92     92     23      2      1     22 
    93     93     31      6      7      8 
    94     94     34      7      6      5 
    95     95     27      4      3      2 
    96     96     32      6      5      4 
    97     97     29      5      6      7 
    98     98     45     14     13     43 
    99     99     53     18     17     16 
   100    100     37      9      8      7 
   101    101     38     10      9     37 
   102    102     35      8      7      6 
   103    103     26      3      2     24 
   104    104     31      6      5     29 
   105    105     42     12     11     10 