#C18_usat_thiol

55 atoms
5 atom types

54 bonds
7 bond types

103 angles
10 angle types

145 dihedrals
12 dihedral types

34 impropers
2 improper types

-12.18912  37.81088  xlo xhi
-5.84332  44.15668  ylo yhi
-1.02646  48.97354  zlo zhi

Masses

1  12.011
2  12.011
3  32.06
4  1.008
5  1.008

Pair Coeffs

1  0.066  3.5
2  0.076  3.55
3  0.425  3.6
4  0.03  2.5
5  0.0  0.0

Bond Coeffs

1  268.0  1.529
2  317.0  1.51
3  549.0  1.34
4  222.0  1.81
5  340.0  1.09
6  340.0  1.08
7  274.0  1.336

Angle Coeffs

1  58.35  112.7
2  63.0  111.1
3  70.0  124.0
4  50.0  108.6
5  37.5  110.7
6  35.0  117.0
7  35.0  120.0
8  35.0  109.5
9  44.0  96.0
10  33.0  107.8

Dihedral Coeffs

1  1.3  -0.2  0.2  0.0
2  0.346  0.405  -0.904  0.0
3  0.0  14.0  0.0  0.0
4  1.262  -0.198  0.465  0.0
5  0.0  0.0  0.3  0.0
6  -0.759  -0.282  0.68  0.0
7  0.0  0.0  0.452  0.0
8  0.0  0.0  -0.372  0.0
9  0.0  0.0  0.366  0.0
10  0.0  0.0  0.318  0.0
11  0.0  0.0  0.48  0.0
12  0.0  -8.0  0.0  0.0

Improper Coeffs

1  0.0  -1.0  2.0
2  2.5  -1.0  2.0

Atoms # full

1  1  1  -0.2388   1   1   0
2  1  1  -0.1793  -0.519   1   0
3  1  1  -0.1786  -1.073   1   1.4242
4  1  1  -0.1793  -2.6   0.9982   1.4242
5  1  1  -0.1789  -3.149   0.9964   2.84992
6  1  1  -0.1801  -4.677   0.99641   2.84829
7  1  1  -0.1766  -5.226   0.99642   4.27426
8  1  1  -0.1449  -6.754   1.06209   4.26989
9  1  2  -0.1902  -7.302   1.06431   5.66628
10  1  2  -0.197  -8.445   0.45322   6.00674
11  1  1  -0.1432  -8.999   0.44921   7.40047
12  1  1  -0.1747  -9.177  -0.98146   7.90483
13  1  1  -0.1804  -9.739  -0.99205   9.32513
14  1  1  -0.1788  -9.919  -2.42107   9.83149
15  1  1  -0.1786  -10.48  -2.42837   11.25198
16  1  1  -0.1802  -10.663  -3.85638   11.76218
17  1  1  -0.1842  -11.227  -3.8637   13.18432
18  1  1   0.0124  -11.405  -5.29215   13.68724
19  1  3  -0.4414  -12.076  -5.29311   15.37411
20  1  4   0.0808   1.379   0.9987  -1.02646
21  1  4   0.0808   1.391   0.11299   0.50853
22  1  4   0.0808   1.391   1.88833   0.50631
23  1  4   0.0884  -0.88   0.11631  -0.53978
24  1  4   0.0884  -0.88   1.88309  -0.53941
25  1  4   0.0895  -0.706   1.88324   1.96137
26  1  4   0.0895  -0.704   0.11721   1.96082
27  1  4   0.0894  -2.967   0.11543   0.8871
28  1  4   0.0894  -2.969   1.88157   0.88816
29  1  4   0.0899  -2.781   1.87969   3.38562
30  1  4   0.0899  -2.781   0.11313   3.38562
31  1  4   0.0898  -5.046   0.11406   2.31177
32  1  4   0.0898  -5.042   1.88035   2.31222
33  1  4   0.0918  -4.821   1.8585   4.81975
34  1  4   0.0918  -4.889   0.09477   4.80052
35  1  4   0.0977  -7.153   0.21361   3.70066
36  1  4   0.0977  -7.075   1.98167   3.76699
37  1  4   0.1365  -6.727   1.59439   6.42274
38  1  4   0.1354  -9.022  -0.07383   5.24988
39  1  4   0.0955  -9.964   0.96745   7.39593
40  1  4   0.0955  -8.339   1.00203   8.08212
41  1  4   0.0927  -8.212  -1.50551   7.88831
42  1  4   0.0927  -9.853  -1.52954   7.23648
43  1  4   0.0901  -10.704  -0.46981   9.34266
44  1  4   0.0901  -9.061  -0.44631   9.99189
45  1  4   0.0909  -8.954  -2.94231   9.81249
46  1  4   0.0909  -10.598  -2.96503   9.16362
47  1  4   0.0914  -11.443  -1.90363   11.26877
48  1  4   0.0914  -9.8  -1.88317   11.91738
49  1  4   0.0916  -9.699  -4.37896   11.74421
50  1  4   0.0916  -11.342  -4.40119   11.09425
51  1  4   0.1018  -12.189  -3.33674   13.19212
52  1  4   0.1018  -10.543  -3.31289   13.843
53  1  4   0.126  -10.446  -5.82019   13.69413
54  1  4   0.126  -12.095  -5.84332   13.03946
55  1  5   0.1453  -11.062  -4.6239   15.94247

Bonds

1  1  2  1
2  1  3  2
3  1  4  3
4  1  5  4
5  1  6  5
6  1  7  6
7  1  8  7
8  2  9  8
9  3  10  9
10  2  11  10
11  1  12  11
12  1  13  12
13  1  14  13
14  1  15  14
15  1  16  15
16  1  17  16
17  1  18  17
18  4  19  18
19  5  20  1
20  5  21  1
21  5  22  1
22  5  23  2
23  5  24  2
24  5  25  3
25  5  26  3
26  5  27  4
27  5  28  4
28  5  29  5
29  5  30  5
30  5  31  6
31  5  32  6
32  5  33  7
33  5  34  7
34  5  35  8
35  5  36  8
36  6  37  9
37  6  38  10
38  5  39  11
39  5  40  11
40  5  41  12
41  5  42  12
42  5  43  13
43  5  44  13
44  5  45  14
45  5  46  14
46  5  47  15
47  5  48  15
48  5  49  16
49  5  50  16
50  5  51  17
51  5  52  17
52  5  53  18
53  5  54  18
54  7  55  19

Angles

1  1  1  2  3
2  1  2  3  4
3  1  3  4  5
4  1  4  5  6
5  1  5  6  7
6  1  6  7  8
7  2  7  8  9
8  3  8  9  10
9  3  9  10  11
10  2  10  11  12
11  1  11  12  13
12  1  12  13  14
13  1  13  14  15
14  1  14  15  16
15  1  15  16  17
16  1  16  17  18
17  4  17  18  19
18  5  2  1  20
19  5  2  1  21
20  5  2  1  22
21  5  1  2  23
22  5  1  2  24
23  5  2  3  25
24  5  2  3  26
25  5  3  4  27
26  5  3  4  28
27  5  4  5  29
28  5  4  5  30
29  5  5  6  31
30  5  5  6  32
31  5  6  7  33
32  5  6  7  34
33  5  7  8  35
34  5  7  8  36
35  6  8  9  37
36  7  9  10  38
37  8  10  11  39
38  8  10  11  40
39  5  11  12  41
40  5  11  12  42
41  5  12  13  43
42  5  12  13  44
43  5  13  14  45
44  5  13  14  46
45  5  14  15  47
46  5  14  15  48
47  5  15  16  49
48  5  15  16  50
49  5  16  17  51
50  5  16  17  52
51  5  17  18  53
52  5  17  18  54
53  9  18  19  55
54  10  47  15  48
55  6  11  10  38
56  5  12  11  40
57  10  27  4  28
58  10  41  12  42
59  8  19  18  54
60  5  17  16  50
61  10  20  1  21
62  5  5  4  27
63  5  7  6  32
64  5  7  6  31
65  5  6  5  30
66  5  5  4  28
67  10  33  7  34
68  10  39  11  40
69  5  8  7  33
70  5  18  17  51
71  5  12  11  39
72  5  15  14  46
73  10  45  14  46
74  10  20  1  22
75  5  13  12  42
76  10  29  5  30
77  10  51  17  52
78  8  9  8  36
79  10  35  8  36
80  5  16  15  47
81  10  49  16  50
82  5  4  3  25
83  5  18  17  52
84  5  4  3  26
85  5  15  14  45
86  5  8  7  34
87  10  53  18  54
88  10  25  3  26
89  5  16  15  48
90  5  14  13  43
91  10  43  13  44
92  10  31  6  32
93  5  3  2  23
94  8  19  18  53
95  8  9  8  35
96  7  10  9  37
97  5  17  16  49
98  10  23  2  24
99  10  21  1  22
100  5  3  2  24
101  5  13  12  41
102  5  6  5  29
103  5  14  13  44

Dihedrals

1  1  4  3  2  1
2  1  5  4  3  2
3  1  6  5  4  3
4  1  7  6  5  4
5  1  8  7  6  5
6  1  9  8  7  6
7  2  10  9  8  7
8  3  11  10  9  8
9  2  12  11  10  9
10  1  13  12  11  10
11  1  14  13  12  11
12  1  15  14  13  12
13  1  16  15  14  13
14  1  17  16  15  14
15  1  18  17  16  15
16  4  19  18  17  16
17  5  20  1  2  3
18  6  55  19  18  17
19  5  50  16  15  48
20  7  51  17  18  19
21  3  38  10  9  8
22  5  54  18  17  16
23  5  25  3  4  5
24  5  28  4  3  2
25  5  29  5  4  28
26  5  30  5  4  27
27  5  43  13  12  41
28  5  47  15  14  13
29  5  50  16  15  14
30  8  35  8  9  10
31  5  51  17  16  15
32  5  23  2  1  21
33  5  48  15  16  17
34  5  24  2  1  20
35  5  50  16  17  18
36  5  47  15  14  45
37  5  26  3  2  1
38  5  33  7  6  31
39  5  23  2  3  4
40  5  32  6  7  8
41  5  27  4  3  25
42  5  32  6  5  30
43  5  51  17  16  50
44  5  52  17  16  49
45  5  35  8  7  33
46  5  44  13  12  41
47  5  43  13  12  42
48  3  37  9  10  11
49  5  45  14  13  44
50  5  54  18  17  52
51  5  49  16  15  14
52  5  49  16  17  18
53  8  36  8  9  10
54  5  42  12  11  40
55  5  30  5  4  3
56  9  34  7  8  9
57  5  22  1  2  3
58  5  33  7  6  5
59  5  51  17  16  49
60  5  40  11  12  13
61  5  47  15  16  17
62  5  24  2  1  22
63  5  46  14  13  43
64  10  37  9  8  35
65  5  25  3  2  23
66  5  54  18  17  51
67  5  53  18  17  52
68  10  39  11  10  38
69  5  44  13  14  15
70  10  40  11  10  38
71  5  52  17  16  15
72  5  21  1  2  3
73  5  27  4  5  6
74  5  36  8  7  33
75  5  35  8  7  34
76  9  41  12  11  10
77  11  55  19  18  54
78  8  39  11  10  9
79  5  42  12  11  39
80  5  41  12  11  40
81  5  48  15  14  46
82  5  48  15  14  13
83  5  34  7  6  32
84  5  41  12  11  39
85  5  45  14  15  16
86  5  24  2  3  4
87  5  28  4  3  25
88  5  27  4  3  26
89  5  28  4  5  6
90  5  30  5  6  7
91  5  39  11  12  13
92  5  24  2  1  21
93  5  23  2  1  22
94  5  31  6  7  8
95  5  34  7  6  5
96  5  27  4  3  2
97  5  32  6  5  4
98  5  29  5  6  7
99  5  45  14  13  43
100  11  55  19  18  53
101  5  53  18  17  16
102  12  37  9  8  7
103  3  38  10  9  37
104  5  35  8  7  6
105  5  26  3  2  24
106  5  31  6  5  29
107  9  42  12  11  10
108  5  43  13  12  11
109  5  42  12  13  14
110  10  37  9  8  36
111  5  36  8  7  6
112  5  29  5  4  27
113  5  48  15  14  45
114  5  47  15  14  46
115  5  32  6  5  29
116  5  31  6  5  30
117  9  33  7  8  9
118  5  53  18  17  51
119  5  26  3  4  5
120  7  52  17  18  19
121  5  26  3  2  23
122  5  25  3  2  24
123  5  49  16  15  47
124  5  36  8  7  34
125  5  29  5  4  3
126  5  44  13  12  42
127  5  30  5  4  28
128  5  23  2  1  20
129  5  45  14  13  12
130  8  40  11  10  9
131  5  25  3  2  1
132  5  34  7  6  31
133  5  33  7  6  32
134  5  41  12  13  14
135  5  28  4  3  26
136  5  44  13  12  11
137  5  52  17  16  50
138  5  31  6  5  4
139  5  43  13  14  15
140  5  46  14  13  12
141  5  46  14  15  16
142  12  38  10  11  12
143  5  46  14  13  44
144  5  50  16  15  47
145  5  49  16  15  48

Impropers

1  1  1  2  20  21
2  1  1  2  20  22
3  1  2  1  3  23
4  1  2  1  3  24
5  1  3  25  2  4
6  1  3  26  4  2
7  1  4  27  5  3
8  1  4  3  28  5
9  1  5  4  29  6
10  1  5  4  30  6
11  1  6  7  5  31
12  1  6  5  7  32
13  1  7  33  6  8
14  1  7  34  6  8
15  1  8  9  35  7
16  1  8  9  36  7
17  2  9  10  37  8
18  2  10  9  11  38
19  1  11  10  12  39
20  1  11  10  12  40
21  1  12  41  11  13
22  1  12  42  11  13
23  1  13  43  12  14
24  1  13  12  44  14
25  1  14  13  45  15
26  1  14  13  46  15
27  1  15  16  47  14
28  1  15  16  14  48
29  1  16  49  17  15
30  1  16  17  50  15
31  1  17  18  51  16
32  1  17  18  52  16
33  1  18  17  19  53
34  1  18  17  19  54
