#C20_anion

61 atoms
4 atom types

60 bonds
4 bond types

117 angles
7 angle types

168 dihedrals
5 dihedral types

39 impropers
2 improper types

-19.74639  30.25361  xlo xhi
0  50.10375  ylo yhi
-1.02651  48.97349  zlo zhi

Masses

1  12.011
2  12.011
3  15.999
4  1.008

Pair Coeffs

1  0.066  3.5
2  0.07  3.55
3  0.21  2.96
4  0.03  2.5

Bond Coeffs

1  268.0  1.529
2  317.0  1.522
3  656.0  1.25
4  340.0  1.09

Angle Coeffs

1  58.35  112.7
2  63.0  111.1
3  70.0  117.0
4  37.5  110.7
5  33.0  107.8
6  80.0  126.0
7  35.0  109.5

Dihedral Coeffs

1  1.3  -0.2  0.2  0.0
2  -2.06  -0.313  0.315  0.0
3  0.0  0.0  0.0  0.0
4  0.0  0.0  0.3  0.0
5  0.0  0.0  -0.1  0.0

Improper Coeffs

1  10.5  -1.0  2.0
2  0.0  -1.0  2.0

Atoms # full

1  1  1  -0.2092   1   1   0
2  1  1  -0.1577  -0.518   1   0
3  1  1  -0.1569  -1.068   1   1.42395
4  1  1  -0.1575  -2.593   0.9982   1.42232
5  1  1  -0.1578  -3.135   1.00002   2.84832
6  1  1  -0.1577  -4.659   0.99642   2.84832
7  1  1  -0.1579  -5.196   1.00005   4.27432
8  1  1  -0.1579  -6.719   0.99465   4.2727
9  1  1  -0.158  -7.254   1.00008   5.69843
10  1  1  -0.1581  -8.776   0.99288   5.69682
11  1  1  -0.1581  -9.31   1.00013   7.12289
12  1  1  -0.1582  -10.832   0.99474   7.1229
13  1  1  -0.158  -11.364   1.00381   8.55021
14  1  1  -0.1584  -12.887   1.00023   8.55183
15  1  1  -0.1582  -13.424   1.01109   9.97846
16  1  1  -0.1577  -14.948   1.00565   9.97359
17  1  1  -0.1613  -15.501   1.01461   11.39582
18  1  1  -0.1363  -17.027   1.01085   11.37623
19  1  1  -0.232  -17.601   1.02146   12.78635
20  1  2   0.4275  -19.13   1.02019   12.85144
21  1  3  -0.6316  -19.746   1.01065   11.75058
22  1  3  -0.6316  -19.594   1.0276   14.02841
23  1  4   0.0699   1.379   0.9987  -1.02651
24  1  4   0.0699   1.39   0.11246   0.50883
25  1  4   0.0699   1.39   1.88883   0.50659
26  1  4   0.0774  -0.88   0.11627  -0.53838
27  1  4   0.0774  -0.88   1.88368  -0.53835
28  1  4   0.0783  -0.702   1.88384   1.9611
29  1  4   0.0783  -0.699   0.11715   1.96097
30  1  4   0.0784  -2.962   0.1133   0.88941
31  1  4   0.0784  -2.964   1.88038   0.88638
32  1  4   0.0783  -2.768   1.88514   3.38234
33  1  4   0.0783  -2.764   0.1189   3.3862
34  1  4   0.0786  -5.027   0.11006   2.31725
35  1  4   0.0786  -5.031   1.87741   2.31116
36  1  4   0.0784  -4.829   1.88721   4.80533
37  1  4   0.0784  -4.824   0.12001   4.81312
38  1  4   0.0786  -7.085   0.10684   3.74269
39  1  4   0.0786  -7.091   1.87429   3.73364
40  1  4   0.0782  -6.888   1.88848   6.22746
41  1  4   0.0782  -6.88   0.12142   6.23833
42  1  4   0.0784  -9.142   0.10375   5.16834
43  1  4   0.0784  -9.15   1.87118   5.15625
44  1  4   0.0776  -8.942   1.88861   7.65085
45  1  4   0.0776  -8.935   0.12179   7.6625
46  1  4   0.078  -11.199   0.10627   6.59452
47  1  4   0.078  -11.205   1.87305   6.58198
48  1  4   0.0764  -10.993   1.89186   9.07638
49  1  4   0.0764  -10.989   0.12514   9.08919
50  1  4   0.0771  -13.254   0.11138   8.02435
51  1  4   0.0771  -13.259   1.87828   8.00933
52  1  4   0.0736  -13.057   1.90113   10.50395
53  1  4   0.0736  -13.05   0.1339   10.52007
54  1  4   0.0757  -15.31   0.11662   9.4423
55  1  4   0.0757  -15.316   1.88377   9.42878
56  1  4   0.0651  -15.137   1.90283   11.92607
57  1  4   0.0651  -15.133   0.13584   11.93883
58  1  4   0.0796  -17.382   0.12354   10.83758
59  1  4   0.0796  -17.387   1.88732   10.82256
60  1  4   0.059  -17.243   1.91055   13.32071
61  1  4   0.059  -17.24   0.14152   13.33395

Bonds

1  1  2  1
2  1  3  2
3  1  4  3
4  1  5  4
5  1  6  5
6  1  7  6
7  1  8  7
8  1  9  8
9  1  10  9
10  1  11  10
11  1  12  11
12  1  13  12
13  1  14  13
14  1  15  14
15  1  16  15
16  1  17  16
17  1  18  17
18  1  19  18
19  2  20  19
20  3  21  20
21  3  22  20
22  4  23  1
23  4  24  1
24  4  25  1
25  4  26  2
26  4  27  2
27  4  28  3
28  4  29  3
29  4  30  4
30  4  31  4
31  4  32  5
32  4  33  5
33  4  34  6
34  4  35  6
35  4  36  7
36  4  37  7
37  4  38  8
38  4  39  8
39  4  40  9
40  4  41  9
41  4  42  10
42  4  43  10
43  4  44  11
44  4  45  11
45  4  46  12
46  4  47  12
47  4  48  13
48  4  49  13
49  4  50  14
50  4  51  14
51  4  52  15
52  4  53  15
53  4  54  16
54  4  55  16
55  4  56  17
56  4  57  17
57  4  58  18
58  4  59  18
59  4  60  19
60  4  61  19

Angles

1  1  1  2  3
2  1  2  3  4
3  1  3  4  5
4  1  4  5  6
5  1  5  6  7
6  1  6  7  8
7  1  7  8  9
8  1  8  9  10
9  1  9  10  11
10  1  10  11  12
11  1  11  12  13
12  1  12  13  14
13  1  13  14  15
14  1  14  15  16
15  1  15  16  17
16  1  16  17  18
17  1  17  18  19
18  2  18  19  20
19  3  19  20  21
20  3  19  20  22
21  4  2  1  23
22  4  2  1  24
23  4  2  1  25
24  4  1  2  26
25  4  1  2  27
26  4  2  3  28
27  4  2  3  29
28  4  3  4  30
29  4  3  4  31
30  4  4  5  32
31  4  4  5  33
32  4  5  6  34
33  4  5  6  35
34  4  6  7  36
35  4  6  7  37
36  4  7  8  38
37  4  7  8  39
38  4  8  9  40
39  4  8  9  41
40  4  9  10  42
41  4  9  10  43
42  4  10  11  44
43  4  10  11  45
44  4  11  12  46
45  4  11  12  47
46  4  12  13  48
47  4  12  13  49
48  4  13  14  50
49  4  13  14  51
50  4  14  15  52
51  4  14  15  53
52  4  15  16  54
53  4  15  16  55
54  4  16  17  56
55  4  16  17  57
56  4  17  18  58
57  4  17  18  59
58  4  18  19  60
59  4  18  19  61
60  4  18  17  56
61  5  54  16  55
62  5  30  4  31
63  4  3  2  26
64  4  15  14  50
65  5  34  6  35
66  4  15  14  51
67  5  46  12  47
68  4  14  13  49
69  4  12  11  44
70  5  50  14  51
71  4  11  10  43
72  4  6  5  32
73  5  44  11  45
74  5  48  13  49
75  4  8  7  36
76  4  14  13  48
77  4  6  5  33
78  6  21  20  22
79  5  28  3  29
80  5  23  1  24
81  5  36  7  37
82  4  3  2  27
83  4  9  8  39
84  4  10  9  41
85  4  4  3  29
86  4  4  3  28
87  7  20  19  61
88  4  17  16  55
89  5  40  9  41
90  5  23  1  25
91  5  58  18  59
92  4  7  6  35
93  5  52  15  53
94  5  60  19  61
95  4  13  12  46
96  5  42  10  43
97  4  7  6  34
98  5  26  2  27
99  5  32  5  33
100  4  19  18  59
101  5  24  1  25
102  5  56  17  57
103  4  10  9  40
104  4  5  4  30
105  5  38  8  39
106  4  13  12  47
107  4  16  15  53
108  7  20  19  60
109  4  8  7  37
110  4  11  10  42
111  4  12  11  45
112  4  9  8  38
113  4  5  4  31
114  4  18  17  57
115  4  17  16  54
116  4  19  18  58
117  4  16  15  52

Dihedrals

1  1  4  3  2  1
2  1  5  4  3  2
3  1  6  5  4  3
4  1  7  6  5  4
5  1  8  7  6  5
6  1  9  8  7  6
7  1  10  9  8  7
8  1  11  10  9  8
9  1  12  11  10  9
10  1  13  12  11  10
11  1  14  13  12  11
12  1  15  14  13  12
13  1  16  15  14  13
14  1  17  16  15  14
15  1  18  17  16  15
16  1  19  18  17  16
17  2  20  19  18  17
18  3  21  20  19  18
19  4  23  1  2  3
20  4  35  6  5  33
21  4  30  4  3  2
22  4  58  18  17  57
23  4  61  19  18  17
24  4  55  16  17  18
25  3  61  19  20  22
26  4  47  12  13  14
27  4  38  8  7  6
28  4  44  11  10  9
29  4  56  17  16  15
30  4  56  17  18  19
31  4  32  5  4  3
32  4  47  12  11  45
33  4  26  2  1  23
34  4  42  10  9  40
35  4  34  6  5  4
36  3  60  19  20  21
37  4  58  18  17  56
38  4  39  8  9  10
39  4  37  7  8  9
40  4  37  7  6  34
41  4  36  7  6  35
42  4  29  3  4  5
43  4  60  19  18  59
44  4  61  19  18  59
45  4  39  8  7  37
46  4  40  9  8  39
47  4  44  11  10  42
48  4  54  16  17  18
49  4  57  17  16  15
50  4  28  3  4  5
51  4  26  2  1  24
52  4  47  12  11  44
53  4  49  13  12  46
54  4  31  4  3  29
55  4  41  9  8  39
56  4  55  16  15  53
57  4  55  16  15  14
58  4  38  8  9  10
59  4  29  3  2  1
60  4  41  9  8  7
61  4  26  2  3  4
62  4  32  5  4  31
63  4  35  6  7  8
64  4  33  5  4  31
65  4  52  15  14  13
66  4  43  10  9  40
67  4  42  10  9  41
68  4  46  12  11  10
69  4  48  13  12  46
70  4  27  2  1  23
71  4  52  15  16  17
72  4  46  12  11  45
73  4  47  12  11  10
74  4  59  18  17  57
75  4  50  14  13  12
76  4  51  14  13  49
77  4  53  15  14  13
78  4  43  10  11  12
79  4  35  6  5  4
80  4  39  8  7  6
81  4  32  5  6  7
82  4  50  14  13  48
83  4  24  1  2  3
84  4  38  8  7  36
85  4  45  11  10  9
86  4  59  18  17  16
87  4  31  4  3  2
88  4  60  19  18  17
89  4  48  13  12  47
90  4  46  12  13  14
91  4  49  13  12  11
92  3  60  19  20  22
93  4  57  17  18  19
94  3  61  19  20  21
95  4  33  5  4  30
96  4  40  9  10  11
97  4  56  17  16  55
98  4  53  15  14  51
99  4  29  3  2  27
100  4  57  17  16  54
101  4  43  10  9  8
102  4  25  1  2  3
103  4  30  4  3  29
104  4  31  4  3  28
105  4  52  15  14  51
106  4  26  2  1  25
107  4  27  2  1  24
108  4  32  5  4  30
109  4  51  14  13  12
110  5  59  18  19  20
111  4  48  13  14  15
112  4  31  4  5  6
113  4  51  14  15  16
114  4  54  16  15  14
115  4  50  14  13  49
116  4  51  14  13  48
117  4  27  2  3  4
118  4  40  9  8  38
119  4  28  3  2  26
120  4  41  9  10  11
121  4  36  7  8  9
122  4  36  7  6  5
123  4  42  10  9  8
124  4  36  7  6  34
125  3  22  20  19  18
126  4  37  7  6  5
127  4  43  10  9  41
128  4  45  11  12  13
129  4  30  4  3  28
130  4  46  12  11  44
131  4  37  7  6  35
132  4  45  11  10  43
133  4  54  16  15  52
134  4  48  13  12  11
135  4  49  13  12  47
136  4  34  6  5  32
137  4  39  8  7  36
138  4  29  3  2  26
139  4  28  3  2  27
140  4  55  16  15  52
141  4  54  16  15  53
142  4  52  15  14  50
143  4  53  15  16  17
144  4  56  17  16  54
145  4  27  2  1  25
146  4  42  10  11  12
147  4  59  18  17  56
148  4  30  4  5  6
149  4  58  18  17  16
150  4  34  6  7  8
151  4  28  3  2  1
152  4  50  14  15  16
153  4  38  8  7  37
154  4  33  5  4  3
155  4  35  6  5  32
156  4  34  6  5  33
157  5  58  18  19  20
158  4  53  15  14  50
159  4  49  13  14  15
160  4  41  9  8  38
161  4  45  11  10  42
162  4  40  9  8  7
163  4  33  5  6  7
164  4  44  11  10  43
165  4  57  17  16  55
166  4  44  11  12  13
167  4  60  19  18  58
168  4  61  19  18  58

Impropers

1  1  20  19  21  22
2  2  1  2  23  24
3  2  1  25  23  2
4  2  2  1  26  3
5  2  2  1  27  3
6  2  3  4  2  28
7  2  3  2  4  29
8  2  4  3  5  30
9  2  4  3  5  31
10  2  5  4  6  32
11  2  5  33  4  6
12  2  6  34  5  7
13  2  6  35  5  7
14  2  7  36  6  8
15  2  7  37  6  8
16  2  8  9  38  7
17  2  8  9  7  39
18  2  9  10  8  40
19  2  9  41  10  8
20  2  10  9  42  11
21  2  10  9  43  11
22  2  11  12  10  44
23  2  11  10  12  45
24  2  12  11  13  46
25  2  12  11  13  47
26  2  13  12  14  48
27  2  13  49  12  14
28  2  14  50  13  15
29  2  14  51  13  15
30  2  15  52  14  16
31  2  15  53  14  16
32  2  16  17  54  15
33  2  16  17  15  55
34  2  17  18  16  56
35  2  17  57  18  16
36  2  18  17  58  19
37  2  18  17  59  19
38  2  19  20  18  60
39  2  19  18  20  61
