#C20_acid

62 atoms
6 atom types

61 bonds
6 bond types

118 angles
9 angle types

170 dihedrals
8 dihedral types

39 impropers
2 improper types

-19.80137  30.19863  xlo xhi
0  50.11261  ylo yhi
-1.02675  48.97325  zlo zhi

Masses

1  12.011
2  12.011
3  15.999
4  15.999
5  1.008
6  1.008

Pair Coeffs

1  0.066  3.5
2  0.07  3.55
3  0.21  2.96
4  0.17  3.12
5  0.03  2.5
6  0.0  0.0

Bond Coeffs

1  268.0  1.529
2  317.0  1.522
3  570.0  1.229
4  450.0  1.364
5  340.0  1.09
6  553.0  0.945

Angle Coeffs

1  58.35  112.7
2  63.0  111.1
3  80.0  120.4
4  70.0  108.0
5  37.5  110.7
6  35.0  113.0
7  33.0  107.8
8  80.0  121.0
9  35.0  109.5

Dihedral Coeffs

1  1.3  -0.2  0.2  0.0
2  -2.06  -0.313  0.315  0.0
3  0.0  0.0  0.0  0.0
4  0.0  0.0  0.3  0.0
5  1.5  5.5  0.0  0.0
6  0.0  0.0  -0.1  0.0
7  1.0  0.546  0.45  0.0
8  0.0  5.5  0.0  0.0

Improper Coeffs

1  10.5  -1.0  2.0
2  0.0  -1.0  2.0

Atoms # full

1  1  1  -0.2388   1   1   0
2  1  1  -0.1796  -0.519   1   0
3  1  1  -0.1788  -1.069   1   1.42352
4  1  1  -0.1795  -2.595   1.0018   1.42352
5  1  1  -0.1798  -3.135   1.00359   2.85016
6  1  1  -0.1797  -4.66   1.00719   2.85342
7  1  1  -0.1798  -5.194   1.01077   4.28108
8  1  1  -0.1798  -6.717   1.01617   4.28433
9  1  1  -0.1799  -7.249   1.01794   5.71163
10  1  1  -0.1798  -8.773   1.02154   5.71489
11  1  1  -0.1799  -9.303   1.0215   7.14263
12  1  1  -0.1799  -10.826   1.02329   7.14914
13  1  1  -0.1796  -11.354   1.02145   8.57868
14  1  1  -0.1798  -12.878   1.02503   8.58845
15  1  1  -0.179  -13.41   1.025   10.0176
16  1  1  -0.179  -14.935   1.03041   10.01923
17  1  1  -0.1799  -15.488   1.02866   11.44196
18  1  1  -0.1712  -17.014   1.03594   11.42072
19  1  1  -0.2603  -17.595   1.03256   12.8319
20  1  2   0.5096  -19.107   1.04156   12.80762
21  1  3  -0.4445  -19.801   1.05047   11.80401
22  1  4  -0.5604  -19.636   1.04027   14.05389
23  1  5   0.0808   1.378   0.9987  -1.02675
24  1  5   0.0808   1.39   0.11261   0.50875
25  1  5   0.0808   1.39   1.88862   0.50647
26  1  5   0.0884  -0.881   0.11697  -0.53938
27  1  5   0.0884  -0.881   1.88303  -0.53938
28  1  5   0.0895  -0.7   1.88214   1.96126
29  1  5   0.0895  -0.702   0.11644   1.96049
30  1  5   0.0896  -2.966   0.11811   0.89012
31  1  5   0.0896  -2.964   1.88548   0.8887
32  1  5   0.0895  -2.764   1.88605   3.38542
33  1  5   0.0895  -2.768   0.11975   3.38607
34  1  5   0.09  -5.033   0.12347   2.3215
35  1  5   0.09  -5.029   1.89083   2.31869
36  1  5   0.0898  -4.819   1.89319   4.81401
37  1  5   0.0898  -4.826   0.1263   4.81577
38  1  5   0.0902  -7.092   0.13384   3.75094
39  1  5   0.0902  -7.085   1.90125   3.75106
40  1  5   0.0898  -6.875   1.90046   6.24495
41  1  5   0.0898  -6.88   0.1335   6.24518
42  1  5   0.0904  -9.146   0.13921   5.18077
43  1  5   0.0904  -9.142   1.90665   5.18232
44  1  5   0.0897  -8.929   1.90393   7.67622
45  1  5   0.0897  -8.931   0.13761   7.67546
46  1  5   0.0906  -11.2   0.14145   6.61397
47  1  5   0.0906  -11.198   1.90786   6.61702
48  1  5   0.0897  -10.977   1.90283   9.112
49  1  5   0.0897  -10.982   0.13605   9.10813
50  1  5   0.0912  -13.251   0.14313   8.05333
51  1  5   0.0912  -13.247   1.90958   8.05497
52  1  5   0.0896  -13.034   1.90631   10.55134
53  1  5   0.0896  -13.042   0.13896   10.54864
54  1  5   0.094  -15.304   0.14987   9.47923
55  1  5   0.094  -15.298   1.91639   9.48381
56  1  5   0.0884  -15.119   1.90926   11.98199
57  1  5   0.0884  -15.127   0.14195   11.97694
58  1  5   0.1111  -17.378   0.15927   10.86962
59  1  5   0.1111  -17.37   1.92066   10.87729
60  1  5   0.1214  -17.253   1.92177   13.37267
61  1  5   0.1214  -17.264   0.1343   13.36404
62  1  6   0.4511  -18.967   1.03381   14.76347

Bonds

1  1  2  1
2  1  3  2
3  1  4  3
4  1  5  4
5  1  6  5
6  1  7  6
7  1  8  7
8  1  9  8
9  1  10  9
10  1  11  10
11  1  12  11
12  1  13  12
13  1  14  13
14  1  15  14
15  1  16  15
16  1  17  16
17  1  18  17
18  1  19  18
19  2  20  19
20  3  21  20
21  4  22  20
22  5  23  1
23  5  24  1
24  5  25  1
25  5  26  2
26  5  27  2
27  5  28  3
28  5  29  3
29  5  30  4
30  5  31  4
31  5  32  5
32  5  33  5
33  5  34  6
34  5  35  6
35  5  36  7
36  5  37  7
37  5  38  8
38  5  39  8
39  5  40  9
40  5  41  9
41  5  42  10
42  5  43  10
43  5  44  11
44  5  45  11
45  5  46  12
46  5  47  12
47  5  48  13
48  5  49  13
49  5  50  14
50  5  51  14
51  5  52  15
52  5  53  15
53  5  54  16
54  5  55  16
55  5  56  17
56  5  57  17
57  5  58  18
58  5  59  18
59  5  60  19
60  5  61  19
61  6  62  22

Angles

1  1  1  2  3
2  1  2  3  4
3  1  3  4  5
4  1  4  5  6
5  1  5  6  7
6  1  6  7  8
7  1  7  8  9
8  1  8  9  10
9  1  9  10  11
10  1  10  11  12
11  1  11  12  13
12  1  12  13  14
13  1  13  14  15
14  1  14  15  16
15  1  15  16  17
16  1  16  17  18
17  1  17  18  19
18  2  18  19  20
19  3  19  20  21
20  4  19  20  22
21  5  2  1  23
22  5  2  1  24
23  5  2  1  25
24  5  1  2  26
25  5  1  2  27
26  5  2  3  28
27  5  2  3  29
28  5  3  4  30
29  5  3  4  31
30  5  4  5  32
31  5  4  5  33
32  5  5  6  34
33  5  5  6  35
34  5  6  7  36
35  5  6  7  37
36  5  7  8  38
37  5  7  8  39
38  5  8  9  40
39  5  8  9  41
40  5  9  10  42
41  5  9  10  43
42  5  10  11  44
43  5  10  11  45
44  5  11  12  46
45  5  11  12  47
46  5  12  13  48
47  5  12  13  49
48  5  13  14  50
49  5  13  14  51
50  5  14  15  52
51  5  14  15  53
52  5  15  16  54
53  5  15  16  55
54  5  16  17  56
55  5  16  17  57
56  5  17  18  58
57  5  17  18  59
58  5  18  19  60
59  5  18  19  61
60  6  20  22  62
61  5  18  17  56
62  7  54  16  55
63  7  30  4  31
64  5  3  2  26
65  5  15  14  50
66  7  34  6  35
67  5  15  14  51
68  7  46  12  47
69  5  14  13  49
70  5  12  11  44
71  7  50  14  51
72  5  11  10  43
73  5  6  5  32
74  7  44  11  45
75  7  48  13  49
76  5  8  7  36
77  5  14  13  48
78  5  6  5  33
79  8  21  20  22
80  7  28  3  29
81  7  23  1  24
82  7  36  7  37
83  5  3  2  27
84  5  9  8  39
85  5  10  9  41
86  5  4  3  29
87  5  4  3  28
88  9  20  19  61
89  5  17  16  55
90  7  40  9  41
91  7  23  1  25
92  7  58  18  59
93  5  7  6  35
94  7  52  15  53
95  7  60  19  61
96  5  13  12  46
97  7  42  10  43
98  5  7  6  34
99  7  26  2  27
100  7  32  5  33
101  5  19  18  59
102  7  24  1  25
103  7  56  17  57
104  5  10  9  40
105  5  5  4  30
106  7  38  8  39
107  5  13  12  47
108  5  16  15  53
109  9  20  19  60
110  5  8  7  37
111  5  11  10  42
112  5  12  11  45
113  5  9  8  38
114  5  5  4  31
115  5  18  17  57
116  5  17  16  54
117  5  19  18  58
118  5  16  15  52

Dihedrals

1  1  4  3  2  1
2  1  5  4  3  2
3  1  6  5  4  3
4  1  7  6  5  4
5  1  8  7  6  5
6  1  9  8  7  6
7  1  10  9  8  7
8  1  11  10  9  8
9  1  12  11  10  9
10  1  13  12  11  10
11  1  14  13  12  11
12  1  15  14  13  12
13  1  16  15  14  13
14  1  17  16  15  14
15  1  18  17  16  15
16  1  19  18  17  16
17  2  20  19  18  17
18  3  21  20  19  18
19  4  23  1  2  3
20  5  62  22  20  19
21  4  35  6  5  33
22  4  30  4  3  2
23  4  58  18  17  57
24  4  61  19  18  17
25  4  55  16  17  18
26  3  61  19  20  22
27  4  47  12  13  14
28  4  38  8  7  6
29  4  44  11  10  9
30  4  56  17  16  15
31  4  56  17  18  19
32  4  32  5  4  3
33  4  47  12  11  45
34  4  26  2  1  23
35  4  42  10  9  40
36  4  34  6  5  4
37  3  60  19  20  21
38  4  58  18  17  56
39  4  39  8  9  10
40  4  37  7  8  9
41  4  37  7  6  34
42  4  36  7  6  35
43  4  29  3  4  5
44  4  60  19  18  59
45  4  61  19  18  59
46  4  39  8  7  37
47  4  40  9  8  39
48  4  44  11  10  42
49  4  54  16  17  18
50  4  57  17  16  15
51  4  28  3  4  5
52  4  26  2  1  24
53  4  47  12  11  44
54  4  49  13  12  46
55  4  31  4  3  29
56  4  41  9  8  39
57  4  55  16  15  53
58  4  55  16  15  14
59  4  38  8  9  10
60  4  29  3  2  1
61  4  41  9  8  7
62  4  26  2  3  4
63  4  32  5  4  31
64  4  35  6  7  8
65  4  33  5  4  31
66  4  52  15  14  13
67  4  43  10  9  40
68  4  42  10  9  41
69  4  46  12  11  10
70  4  48  13  12  46
71  4  27  2  1  23
72  4  52  15  16  17
73  4  46  12  11  45
74  4  47  12  11  10
75  4  59  18  17  57
76  4  50  14  13  12
77  4  51  14  13  49
78  4  53  15  14  13
79  4  43  10  11  12
80  4  35  6  5  4
81  4  39  8  7  6
82  4  32  5  6  7
83  4  50  14  13  48
84  4  24  1  2  3
85  4  38  8  7  36
86  4  45  11  10  9
87  4  59  18  17  16
88  4  31  4  3  2
89  4  60  19  18  17
90  4  48  13  12  47
91  4  46  12  13  14
92  4  49  13  12  11
93  3  60  19  20  22
94  4  57  17  18  19
95  3  61  19  20  21
96  4  33  5  4  30
97  4  40  9  10  11
98  4  56  17  16  55
99  4  53  15  14  51
100  4  29  3  2  27
101  4  57  17  16  54
102  4  43  10  9  8
103  4  25  1  2  3
104  4  30  4  3  29
105  4  31  4  3  28
106  4  52  15  14  51
107  4  26  2  1  25
108  4  27  2  1  24
109  4  32  5  4  30
110  4  51  14  13  12
111  6  59  18  19  20
112  4  48  13  14  15
113  4  31  4  5  6
114  4  51  14  15  16
115  4  54  16  15  14
116  4  50  14  13  49
117  4  51  14  13  48
118  4  27  2  3  4
119  4  40  9  8  38
120  4  28  3  2  26
121  4  41  9  10  11
122  4  36  7  8  9
123  4  36  7  6  5
124  4  42  10  9  8
125  4  36  7  6  34
126  7  22  20  19  18
127  4  37  7  6  5
128  4  43  10  9  41
129  4  45  11  12  13
130  4  30  4  3  28
131  4  46  12  11  44
132  4  37  7  6  35
133  4  45  11  10  43
134  4  54  16  15  52
135  4  48  13  12  11
136  4  49  13  12  47
137  4  34  6  5  32
138  8  62  22  20  21
139  4  29  3  2  26
140  4  28  3  2  27
141  4  55  16  15  52
142  4  54  16  15  53
143  4  52  15  14  50
144  4  53  15  16  17
145  4  56  17  16  54
146  4  27  2  1  25
147  4  42  10  11  12
148  4  59  18  17  56
149  4  30  4  5  6
150  4  58  18  17  16
151  4  34  6  7  8
152  4  28  3  2  1
153  4  50  14  15  16
154  4  38  8  7  37
155  4  33  5  4  3
156  4  39  8  7  36
157  4  35  6  5  32
158  4  34  6  5  33
159  6  58  18  19  20
160  4  53  15  14  50
161  4  49  13  14  15
162  4  41  9  8  38
163  4  45  11  10  42
164  4  40  9  8  7
165  4  33  5  6  7
166  4  44  11  10  43
167  4  57  17  16  55
168  4  44  11  12  13
169  4  60  19  18  58
170  4  61  19  18  58

Impropers

1  1  20  19  21  22
2  2  1  2  23  24
3  2  1  25  23  2
4  2  2  1  26  3
5  2  2  1  27  3
6  2  3  4  2  28
7  2  3  2  4  29
8  2  4  3  5  30
9  2  4  3  5  31
10  2  5  4  6  32
11  2  5  33  4  6
12  2  6  34  5  7
13  2  6  35  5  7
14  2  7  36  6  8
15  2  7  37  6  8
16  2  8  9  38  7
17  2  8  9  7  39
18  2  9  10  8  40
19  2  9  41  10  8
20  2  10  9  42  11
21  2  10  9  43  11
22  2  11  12  10  44
23  2  11  10  12  45
24  2  12  11  13  46
25  2  12  11  13  47
26  2  13  12  14  48
27  2  13  49  12  14
28  2  14  50  13  15
29  2  14  51  13  15
30  2  15  52  14  16
31  2  15  53  14  16
32  2  16  17  54  15
33  2  16  17  15  55
34  2  17  18  16  56
35  2  17  57  18  16
36  2  18  17  58  19
37  2  18  17  59  19
38  2  19  20  18  60
39  2  19  18  20  61
