LAMMPS data file Created by LigParGen - (Written by Leela S. Dodda)

      61 atoms
      60 bonds
     117 angles
     168 dihedrals
      39 impropers
 
      61 atom types
      60 bond types
     117 angle types
     168 dihedral types
      39 improper types
 
  -19.746390    30.253610 xlo xhi
    0.103750    50.103750 ylo yhi
   -1.026510    48.973490 zlo zhi

Masses

       1     12.011  
       2     12.011  
       3     12.011  
       4     12.011  
       5     12.011  
       6     12.011  
       7     12.011  
       8     12.011  
       9     12.011  
      10     12.011  
      11     12.011  
      12     12.011  
      13     12.011  
      14     12.011  
      15     12.011  
      16     12.011  
      17     12.011  
      18     12.011  
      19     12.011  
      20     12.011  
      21     15.999  
      22     15.999  
      23      1.008  
      24      1.008  
      25      1.008  
      26      1.008  
      27      1.008  
      28      1.008  
      29      1.008  
      30      1.008  
      31      1.008  
      32      1.008  
      33      1.008  
      34      1.008  
      35      1.008  
      36      1.008  
      37      1.008  
      38      1.008  
      39      1.008  
      40      1.008  
      41      1.008  
      42      1.008  
      43      1.008  
      44      1.008  
      45      1.008  
      46      1.008  
      47      1.008  
      48      1.008  
      49      1.008  
      50      1.008  
      51      1.008  
      52      1.008  
      53      1.008  
      54      1.008  
      55      1.008  
      56      1.008  
      57      1.008  
      58      1.008  
      59      1.008  
      60      1.008  
      61      1.008  

Pair Coeffs 

       1      0.066  3.5000000 
       2      0.066  3.5000000 
       3      0.066  3.5000000 
       4      0.066  3.5000000 
       5      0.066  3.5000000 
       6      0.066  3.5000000 
       7      0.066  3.5000000 
       8      0.066  3.5000000 
       9      0.066  3.5000000 
      10      0.066  3.5000000 
      11      0.066  3.5000000 
      12      0.066  3.5000000 
      13      0.066  3.5000000 
      14      0.066  3.5000000 
      15      0.066  3.5000000 
      16      0.066  3.5000000 
      17      0.066  3.5000000 
      18      0.066  3.5000000 
      19      0.066  3.5000000 
      20      0.070  3.5500000 
      21      0.210  2.9600000 
      22      0.210  2.9600000 
      23      0.030  2.5000000 
      24      0.030  2.5000000 
      25      0.030  2.5000000 
      26      0.030  2.5000000 
      27      0.030  2.5000000 
      28      0.030  2.5000000 
      29      0.030  2.5000000 
      30      0.030  2.5000000 
      31      0.030  2.5000000 
      32      0.030  2.5000000 
      33      0.030  2.5000000 
      34      0.030  2.5000000 
      35      0.030  2.5000000 
      36      0.030  2.5000000 
      37      0.030  2.5000000 
      38      0.030  2.5000000 
      39      0.030  2.5000000 
      40      0.030  2.5000000 
      41      0.030  2.5000000 
      42      0.030  2.5000000 
      43      0.030  2.5000000 
      44      0.030  2.5000000 
      45      0.030  2.5000000 
      46      0.030  2.5000000 
      47      0.030  2.5000000 
      48      0.030  2.5000000 
      49      0.030  2.5000000 
      50      0.030  2.5000000 
      51      0.030  2.5000000 
      52      0.030  2.5000000 
      53      0.030  2.5000000 
      54      0.030  2.5000000 
      55      0.030  2.5000000 
      56      0.030  2.5000000 
      57      0.030  2.5000000 
      58      0.030  2.5000000 
      59      0.030  2.5000000 
      60      0.030  2.5000000 
      61      0.030  2.5000000 

Bond Coeffs 

       1   268.0000     1.5290 
       2   268.0000     1.5290 
       3   268.0000     1.5290 
       4   268.0000     1.5290 
       5   268.0000     1.5290 
       6   268.0000     1.5290 
       7   268.0000     1.5290 
       8   268.0000     1.5290 
       9   268.0000     1.5290 
      10   268.0000     1.5290 
      11   268.0000     1.5290 
      12   268.0000     1.5290 
      13   268.0000     1.5290 
      14   268.0000     1.5290 
      15   268.0000     1.5290 
      16   268.0000     1.5290 
      17   268.0000     1.5290 
      18   268.0000     1.5290 
      19   317.0000     1.5220 
      20   656.0000     1.2500 
      21   656.0000     1.2500 
      22   340.0000     1.0900 
      23   340.0000     1.0900 
      24   340.0000     1.0900 
      25   340.0000     1.0900 
      26   340.0000     1.0900 
      27   340.0000     1.0900 
      28   340.0000     1.0900 
      29   340.0000     1.0900 
      30   340.0000     1.0900 
      31   340.0000     1.0900 
      32   340.0000     1.0900 
      33   340.0000     1.0900 
      34   340.0000     1.0900 
      35   340.0000     1.0900 
      36   340.0000     1.0900 
      37   340.0000     1.0900 
      38   340.0000     1.0900 
      39   340.0000     1.0900 
      40   340.0000     1.0900 
      41   340.0000     1.0900 
      42   340.0000     1.0900 
      43   340.0000     1.0900 
      44   340.0000     1.0900 
      45   340.0000     1.0900 
      46   340.0000     1.0900 
      47   340.0000     1.0900 
      48   340.0000     1.0900 
      49   340.0000     1.0900 
      50   340.0000     1.0900 
      51   340.0000     1.0900 
      52   340.0000     1.0900 
      53   340.0000     1.0900 
      54   340.0000     1.0900 
      55   340.0000     1.0900 
      56   340.0000     1.0900 
      57   340.0000     1.0900 
      58   340.0000     1.0900 
      59   340.0000     1.0900 
      60   340.0000     1.0900 

Angle Coeffs 

       1     58.350    112.700
       2     58.350    112.700
       3     58.350    112.700
       4     58.350    112.700
       5     58.350    112.700
       6     58.350    112.700
       7     58.350    112.700
       8     58.350    112.700
       9     58.350    112.700
      10     58.350    112.700
      11     58.350    112.700
      12     58.350    112.700
      13     58.350    112.700
      14     58.350    112.700
      15     58.350    112.700
      16     58.350    112.700
      17     58.350    112.700
      18     63.000    111.100
      19     70.000    117.000
      20     70.000    117.000
      21     37.500    110.700
      22     37.500    110.700
      23     37.500    110.700
      24     37.500    110.700
      25     37.500    110.700
      26     37.500    110.700
      27     37.500    110.700
      28     37.500    110.700
      29     37.500    110.700
      30     37.500    110.700
      31     37.500    110.700
      32     37.500    110.700
      33     37.500    110.700
      34     37.500    110.700
      35     37.500    110.700
      36     37.500    110.700
      37     37.500    110.700
      38     37.500    110.700
      39     37.500    110.700
      40     37.500    110.700
      41     37.500    110.700
      42     37.500    110.700
      43     37.500    110.700
      44     37.500    110.700
      45     37.500    110.700
      46     37.500    110.700
      47     37.500    110.700
      48     37.500    110.700
      49     37.500    110.700
      50     37.500    110.700
      51     37.500    110.700
      52     37.500    110.700
      53     37.500    110.700
      54     37.500    110.700
      55     37.500    110.700
      56     37.500    110.700
      57     37.500    110.700
      58     37.500    110.700
      59     37.500    110.700
      60     37.500    110.700
      61     33.000    107.800
      62     33.000    107.800
      63     37.500    110.700
      64     37.500    110.700
      65     33.000    107.800
      66     37.500    110.700
      67     33.000    107.800
      68     37.500    110.700
      69     37.500    110.700
      70     33.000    107.800
      71     37.500    110.700
      72     37.500    110.700
      73     33.000    107.800
      74     33.000    107.800
      75     37.500    110.700
      76     37.500    110.700
      77     37.500    110.700
      78     80.000    126.000
      79     33.000    107.800
      80     33.000    107.800
      81     33.000    107.800
      82     37.500    110.700
      83     37.500    110.700
      84     37.500    110.700
      85     37.500    110.700
      86     37.500    110.700
      87     35.000    109.500
      88     37.500    110.700
      89     33.000    107.800
      90     33.000    107.800
      91     33.000    107.800
      92     37.500    110.700
      93     33.000    107.800
      94     33.000    107.800
      95     37.500    110.700
      96     33.000    107.800
      97     37.500    110.700
      98     33.000    107.800
      99     33.000    107.800
     100     37.500    110.700
     101     33.000    107.800
     102     33.000    107.800
     103     37.500    110.700
     104     37.500    110.700
     105     33.000    107.800
     106     37.500    110.700
     107     37.500    110.700
     108     35.000    109.500
     109     37.500    110.700
     110     37.500    110.700
     111     37.500    110.700
     112     37.500    110.700
     113     37.500    110.700
     114     37.500    110.700
     115     37.500    110.700
     116     37.500    110.700
     117     37.500    110.700

Dihedral Coeffs  

       1      1.300     -0.200      0.200      0.000 
       2      1.300     -0.200      0.200      0.000 
       3      1.300     -0.200      0.200      0.000 
       4      1.300     -0.200      0.200      0.000 
       5      1.300     -0.200      0.200      0.000 
       6      1.300     -0.200      0.200      0.000 
       7      1.300     -0.200      0.200      0.000 
       8      1.300     -0.200      0.200      0.000 
       9      1.300     -0.200      0.200      0.000 
      10      1.300     -0.200      0.200      0.000 
      11      1.300     -0.200      0.200      0.000 
      12      1.300     -0.200      0.200      0.000 
      13      1.300     -0.200      0.200      0.000 
      14      1.300     -0.200      0.200      0.000 
      15      1.300     -0.200      0.200      0.000 
      16      1.300     -0.200      0.200      0.000 
      17     -2.060     -0.313      0.315      0.000 
      18      0.000      0.000      0.000      0.000 
      19      0.000      0.000      0.300      0.000 
      20      0.000      0.000      0.300      0.000 
      21      0.000      0.000      0.300      0.000 
      22      0.000      0.000      0.300      0.000 
      23      0.000      0.000      0.300      0.000 
      24      0.000      0.000      0.300      0.000 
      25      0.000      0.000      0.000      0.000 
      26      0.000      0.000      0.300      0.000 
      27      0.000      0.000      0.300      0.000 
      28      0.000      0.000      0.300      0.000 
      29      0.000      0.000      0.300      0.000 
      30      0.000      0.000      0.300      0.000 
      31      0.000      0.000      0.300      0.000 
      32      0.000      0.000      0.300      0.000 
      33      0.000      0.000      0.300      0.000 
      34      0.000      0.000      0.300      0.000 
      35      0.000      0.000      0.300      0.000 
      36      0.000      0.000      0.000      0.000 
      37      0.000      0.000      0.300      0.000 
      38      0.000      0.000      0.300      0.000 
      39      0.000      0.000      0.300      0.000 
      40      0.000      0.000      0.300      0.000 
      41      0.000      0.000      0.300      0.000 
      42      0.000      0.000      0.300      0.000 
      43      0.000      0.000      0.300      0.000 
      44      0.000      0.000      0.300      0.000 
      45      0.000      0.000      0.300      0.000 
      46      0.000      0.000      0.300      0.000 
      47      0.000      0.000      0.300      0.000 
      48      0.000      0.000      0.300      0.000 
      49      0.000      0.000      0.300      0.000 
      50      0.000      0.000      0.300      0.000 
      51      0.000      0.000      0.300      0.000 
      52      0.000      0.000      0.300      0.000 
      53      0.000      0.000      0.300      0.000 
      54      0.000      0.000      0.300      0.000 
      55      0.000      0.000      0.300      0.000 
      56      0.000      0.000      0.300      0.000 
      57      0.000      0.000      0.300      0.000 
      58      0.000      0.000      0.300      0.000 
      59      0.000      0.000      0.300      0.000 
      60      0.000      0.000      0.300      0.000 
      61      0.000      0.000      0.300      0.000 
      62      0.000      0.000      0.300      0.000 
      63      0.000      0.000      0.300      0.000 
      64      0.000      0.000      0.300      0.000 
      65      0.000      0.000      0.300      0.000 
      66      0.000      0.000      0.300      0.000 
      67      0.000      0.000      0.300      0.000 
      68      0.000      0.000      0.300      0.000 
      69      0.000      0.000      0.300      0.000 
      70      0.000      0.000      0.300      0.000 
      71      0.000      0.000      0.300      0.000 
      72      0.000      0.000      0.300      0.000 
      73      0.000      0.000      0.300      0.000 
      74      0.000      0.000      0.300      0.000 
      75      0.000      0.000      0.300      0.000 
      76      0.000      0.000      0.300      0.000 
      77      0.000      0.000      0.300      0.000 
      78      0.000      0.000      0.300      0.000 
      79      0.000      0.000      0.300      0.000 
      80      0.000      0.000      0.300      0.000 
      81      0.000      0.000      0.300      0.000 
      82      0.000      0.000      0.300      0.000 
      83      0.000      0.000      0.300      0.000 
      84      0.000      0.000      0.300      0.000 
      85      0.000      0.000      0.300      0.000 
      86      0.000      0.000      0.300      0.000 
      87      0.000      0.000      0.300      0.000 
      88      0.000      0.000      0.300      0.000 
      89      0.000      0.000      0.300      0.000 
      90      0.000      0.000      0.300      0.000 
      91      0.000      0.000      0.300      0.000 
      92      0.000      0.000      0.000      0.000 
      93      0.000      0.000      0.300      0.000 
      94      0.000      0.000      0.000      0.000 
      95      0.000      0.000      0.300      0.000 
      96      0.000      0.000      0.300      0.000 
      97      0.000      0.000      0.300      0.000 
      98      0.000      0.000      0.300      0.000 
      99      0.000      0.000      0.300      0.000 
     100      0.000      0.000      0.300      0.000 
     101      0.000      0.000      0.300      0.000 
     102      0.000      0.000      0.300      0.000 
     103      0.000      0.000      0.300      0.000 
     104      0.000      0.000      0.300      0.000 
     105      0.000      0.000      0.300      0.000 
     106      0.000      0.000      0.300      0.000 
     107      0.000      0.000      0.300      0.000 
     108      0.000      0.000      0.300      0.000 
     109      0.000      0.000      0.300      0.000 
     110      0.000      0.000     -0.100      0.000 
     111      0.000      0.000      0.300      0.000 
     112      0.000      0.000      0.300      0.000 
     113      0.000      0.000      0.300      0.000 
     114      0.000      0.000      0.300      0.000 
     115      0.000      0.000      0.300      0.000 
     116      0.000      0.000      0.300      0.000 
     117      0.000      0.000      0.300      0.000 
     118      0.000      0.000      0.300      0.000 
     119      0.000      0.000      0.300      0.000 
     120      0.000      0.000      0.300      0.000 
     121      0.000      0.000      0.300      0.000 
     122      0.000      0.000      0.300      0.000 
     123      0.000      0.000      0.300      0.000 
     124      0.000      0.000      0.300      0.000 
     125      0.000      0.000      0.000      0.000 
     126      0.000      0.000      0.300      0.000 
     127      0.000      0.000      0.300      0.000 
     128      0.000      0.000      0.300      0.000 
     129      0.000      0.000      0.300      0.000 
     130      0.000      0.000      0.300      0.000 
     131      0.000      0.000      0.300      0.000 
     132      0.000      0.000      0.300      0.000 
     133      0.000      0.000      0.300      0.000 
     134      0.000      0.000      0.300      0.000 
     135      0.000      0.000      0.300      0.000 
     136      0.000      0.000      0.300      0.000 
     137      0.000      0.000      0.300      0.000 
     138      0.000      0.000      0.300      0.000 
     139      0.000      0.000      0.300      0.000 
     140      0.000      0.000      0.300      0.000 
     141      0.000      0.000      0.300      0.000 
     142      0.000      0.000      0.300      0.000 
     143      0.000      0.000      0.300      0.000 
     144      0.000      0.000      0.300      0.000 
     145      0.000      0.000      0.300      0.000 
     146      0.000      0.000      0.300      0.000 
     147      0.000      0.000      0.300      0.000 
     148      0.000      0.000      0.300      0.000 
     149      0.000      0.000      0.300      0.000 
     150      0.000      0.000      0.300      0.000 
     151      0.000      0.000      0.300      0.000 
     152      0.000      0.000      0.300      0.000 
     153      0.000      0.000      0.300      0.000 
     154      0.000      0.000      0.300      0.000 
     155      0.000      0.000      0.300      0.000 
     156      0.000      0.000      0.300      0.000 
     157      0.000      0.000     -0.100      0.000 
     158      0.000      0.000      0.300      0.000 
     159      0.000      0.000      0.300      0.000 
     160      0.000      0.000      0.300      0.000 
     161      0.000      0.000      0.300      0.000 
     162      0.000      0.000      0.300      0.000 
     163      0.000      0.000      0.300      0.000 
     164      0.000      0.000      0.300      0.000 
     165      0.000      0.000      0.300      0.000 
     166      0.000      0.000      0.300      0.000 
     167      0.000      0.000      0.300      0.000 
     168      0.000      0.000      0.300      0.000 

Improper Coeffs 

       1     10.500      -1       2 
       2      0.000      -1       2 
       3      0.000      -1       2 
       4      0.000      -1       2 
       5      0.000      -1       2 
       6      0.000      -1       2 
       7      0.000      -1       2 
       8      0.000      -1       2 
       9      0.000      -1       2 
      10      0.000      -1       2 
      11      0.000      -1       2 
      12      0.000      -1       2 
      13      0.000      -1       2 
      14      0.000      -1       2 
      15      0.000      -1       2 
      16      0.000      -1       2 
      17      0.000      -1       2 
      18      0.000      -1       2 
      19      0.000      -1       2 
      20      0.000      -1       2 
      21      0.000      -1       2 
      22      0.000      -1       2 
      23      0.000      -1       2 
      24      0.000      -1       2 
      25      0.000      -1       2 
      26      0.000      -1       2 
      27      0.000      -1       2 
      28      0.000      -1       2 
      29      0.000      -1       2 
      30      0.000      -1       2 
      31      0.000      -1       2 
      32      0.000      -1       2 
      33      0.000      -1       2 
      34      0.000      -1       2 
      35      0.000      -1       2 
      36      0.000      -1       2 
      37      0.000      -1       2 
      38      0.000      -1       2 
      39      0.000      -1       2 

Atoms 

     1      1      1 -0.20920000    1.000  1.00000  0.00000
     2      1      2 -0.15770000   -0.518  1.00000  0.00000
     3      1      3 -0.15690000   -1.068  1.00000  1.42395
     4      1      4 -0.15750000   -2.593  0.99820  1.42232
     5      1      5 -0.15780000   -3.135  1.00002  2.84832
     6      1      6 -0.15770000   -4.659  0.99642  2.84832
     7      1      7 -0.15790000   -5.196  1.00005  4.27432
     8      1      8 -0.15790000   -6.719  0.99465  4.27270
     9      1      9 -0.15800000   -7.254  1.00008  5.69843
    10      1     10 -0.15810000   -8.776  0.99288  5.69682
    11      1     11 -0.15810000   -9.310  1.00013  7.12289
    12      1     12 -0.15820000  -10.832  0.99474  7.12290
    13      1     13 -0.15800000  -11.364  1.00381  8.55021
    14      1     14 -0.15840000  -12.887  1.00023  8.55183
    15      1     15 -0.15820000  -13.424  1.01109  9.97846
    16      1     16 -0.15770000  -14.948  1.00565  9.97359
    17      1     17 -0.16130000  -15.501  1.01461 11.39582
    18      1     18 -0.13630000  -17.027  1.01085 11.37623
    19      1     19 -0.23200000  -17.601  1.02146 12.78635
    20      1     20 0.42750000  -19.130  1.02019 12.85144
    21      1     21 -0.63160000  -19.746  1.01065 11.75058
    22      1     22 -0.63160000  -19.594  1.02760 14.02841
    23      1     23 0.06990000    1.379  0.99870 -1.02651
    24      1     24 0.06990000    1.390  0.11246  0.50883
    25      1     25 0.06990000    1.390  1.88883  0.50659
    26      1     26 0.07740000   -0.880  0.11627 -0.53838
    27      1     27 0.07740000   -0.880  1.88368 -0.53835
    28      1     28 0.07830000   -0.702  1.88384  1.96110
    29      1     29 0.07830000   -0.699  0.11715  1.96097
    30      1     30 0.07840000   -2.962  0.11330  0.88941
    31      1     31 0.07840000   -2.964  1.88038  0.88638
    32      1     32 0.07830000   -2.768  1.88514  3.38234
    33      1     33 0.07830000   -2.764  0.11890  3.38620
    34      1     34 0.07860000   -5.027  0.11006  2.31725
    35      1     35 0.07860000   -5.031  1.87741  2.31116
    36      1     36 0.07840000   -4.829  1.88721  4.80533
    37      1     37 0.07840000   -4.824  0.12001  4.81312
    38      1     38 0.07860000   -7.085  0.10684  3.74269
    39      1     39 0.07860000   -7.091  1.87429  3.73364
    40      1     40 0.07820000   -6.888  1.88848  6.22746
    41      1     41 0.07820000   -6.880  0.12142  6.23833
    42      1     42 0.07840000   -9.142  0.10375  5.16834
    43      1     43 0.07840000   -9.150  1.87118  5.15625
    44      1     44 0.07760000   -8.942  1.88861  7.65085
    45      1     45 0.07760000   -8.935  0.12179  7.66250
    46      1     46 0.07800000  -11.199  0.10627  6.59452
    47      1     47 0.07800000  -11.205  1.87305  6.58198
    48      1     48 0.07640000  -10.993  1.89186  9.07638
    49      1     49 0.07640000  -10.989  0.12514  9.08919
    50      1     50 0.07710000  -13.254  0.11138  8.02435
    51      1     51 0.07710000  -13.259  1.87828  8.00933
    52      1     52 0.07360000  -13.057  1.90113 10.50395
    53      1     53 0.07360000  -13.050  0.13390 10.52007
    54      1     54 0.07570000  -15.310  0.11662  9.44230
    55      1     55 0.07570000  -15.316  1.88377  9.42878
    56      1     56 0.06510000  -15.137  1.90283 11.92607
    57      1     57 0.06510000  -15.133  0.13584 11.93883
    58      1     58 0.07960000  -17.382  0.12354 10.83758
    59      1     59 0.07960000  -17.387  1.88732 10.82256
    60      1     60 0.05900000  -17.243  1.91055 13.32071
    61      1     61 0.05900000  -17.240  0.14152 13.33395

Bonds 

     1      1      2      1
     2      2      3      2
     3      3      4      3
     4      4      5      4
     5      5      6      5
     6      6      7      6
     7      7      8      7
     8      8      9      8
     9      9     10      9
    10     10     11     10
    11     11     12     11
    12     12     13     12
    13     13     14     13
    14     14     15     14
    15     15     16     15
    16     16     17     16
    17     17     18     17
    18     18     19     18
    19     19     20     19
    20     20     21     20
    21     21     22     20
    22     22     23      1
    23     23     24      1
    24     24     25      1
    25     25     26      2
    26     26     27      2
    27     27     28      3
    28     28     29      3
    29     29     30      4
    30     30     31      4
    31     31     32      5
    32     32     33      5
    33     33     34      6
    34     34     35      6
    35     35     36      7
    36     36     37      7
    37     37     38      8
    38     38     39      8
    39     39     40      9
    40     40     41      9
    41     41     42     10
    42     42     43     10
    43     43     44     11
    44     44     45     11
    45     45     46     12
    46     46     47     12
    47     47     48     13
    48     48     49     13
    49     49     50     14
    50     50     51     14
    51     51     52     15
    52     52     53     15
    53     53     54     16
    54     54     55     16
    55     55     56     17
    56     56     57     17
    57     57     58     18
    58     58     59     18
    59     59     60     19
    60     60     61     19

Angles 

     1      1      1      2      3
     2      2      2      3      4
     3      3      3      4      5
     4      4      4      5      6
     5      5      5      6      7
     6      6      6      7      8
     7      7      7      8      9
     8      8      8      9     10
     9      9      9     10     11
    10     10     10     11     12
    11     11     11     12     13
    12     12     12     13     14
    13     13     13     14     15
    14     14     14     15     16
    15     15     15     16     17
    16     16     16     17     18
    17     17     17     18     19
    18     18     18     19     20
    19     19     19     20     21
    20     20     19     20     22
    21     21      2      1     23
    22     22      2      1     24
    23     23      2      1     25
    24     24      1      2     26
    25     25      1      2     27
    26     26      2      3     28
    27     27      2      3     29
    28     28      3      4     30
    29     29      3      4     31
    30     30      4      5     32
    31     31      4      5     33
    32     32      5      6     34
    33     33      5      6     35
    34     34      6      7     36
    35     35      6      7     37
    36     36      7      8     38
    37     37      7      8     39
    38     38      8      9     40
    39     39      8      9     41
    40     40      9     10     42
    41     41      9     10     43
    42     42     10     11     44
    43     43     10     11     45
    44     44     11     12     46
    45     45     11     12     47
    46     46     12     13     48
    47     47     12     13     49
    48     48     13     14     50
    49     49     13     14     51
    50     50     14     15     52
    51     51     14     15     53
    52     52     15     16     54
    53     53     15     16     55
    54     54     16     17     56
    55     55     16     17     57
    56     56     17     18     58
    57     57     17     18     59
    58     58     18     19     60
    59     59     18     19     61
    60     60     18     17     56
    61     61     54     16     55
    62     62     30      4     31
    63     63      3      2     26
    64     64     15     14     50
    65     65     34      6     35
    66     66     15     14     51
    67     67     46     12     47
    68     68     14     13     49
    69     69     12     11     44
    70     70     50     14     51
    71     71     11     10     43
    72     72      6      5     32
    73     73     44     11     45
    74     74     48     13     49
    75     75      8      7     36
    76     76     14     13     48
    77     77      6      5     33
    78     78     21     20     22
    79     79     28      3     29
    80     80     23      1     24
    81     81     36      7     37
    82     82      3      2     27
    83     83      9      8     39
    84     84     10      9     41
    85     85      4      3     29
    86     86      4      3     28
    87     87     20     19     61
    88     88     17     16     55
    89     89     40      9     41
    90     90     23      1     25
    91     91     58     18     59
    92     92      7      6     35
    93     93     52     15     53
    94     94     60     19     61
    95     95     13     12     46
    96     96     42     10     43
    97     97      7      6     34
    98     98     26      2     27
    99     99     32      5     33
   100    100     19     18     59
   101    101     24      1     25
   102    102     56     17     57
   103    103     10      9     40
   104    104      5      4     30
   105    105     38      8     39
   106    106     13     12     47
   107    107     16     15     53
   108    108     20     19     60
   109    109      8      7     37
   110    110     11     10     42
   111    111     12     11     45
   112    112      9      8     38
   113    113      5      4     31
   114    114     18     17     57
   115    115     17     16     54
   116    116     19     18     58
   117    117     16     15     52

Dihedrals

     1      1      4      3      2      1 
     2      2      5      4      3      2 
     3      3      6      5      4      3 
     4      4      7      6      5      4 
     5      5      8      7      6      5 
     6      6      9      8      7      6 
     7      7     10      9      8      7 
     8      8     11     10      9      8 
     9      9     12     11     10      9 
    10     10     13     12     11     10 
    11     11     14     13     12     11 
    12     12     15     14     13     12 
    13     13     16     15     14     13 
    14     14     17     16     15     14 
    15     15     18     17     16     15 
    16     16     19     18     17     16 
    17     17     20     19     18     17 