LAMMPS data file Created by LigParGen - (Written by Leela S. Dodda)

      62 atoms
      61 bonds
     118 angles
     170 dihedrals
      39 impropers
 
      62 atom types
      61 bond types
     118 angle types
     170 dihedral types
      39 improper types
 
  -19.801370    30.198630 xlo xhi
    0.112610    50.112610 ylo yhi
   -1.026750    48.973250 zlo zhi

Masses

       1     12.011  
       2     12.011  
       3     12.011  
       4     12.011  
       5     12.011  
       6     12.011  
       7     12.011  
       8     12.011  
       9     12.011  
      10     12.011  
      11     12.011  
      12     12.011  
      13     12.011  
      14     12.011  
      15     12.011  
      16     12.011  
      17     12.011  
      18     12.011  
      19     12.011  
      20     12.011  
      21     15.999  
      22     15.999  
      23      1.008  
      24      1.008  
      25      1.008  
      26      1.008  
      27      1.008  
      28      1.008  
      29      1.008  
      30      1.008  
      31      1.008  
      32      1.008  
      33      1.008  
      34      1.008  
      35      1.008  
      36      1.008  
      37      1.008  
      38      1.008  
      39      1.008  
      40      1.008  
      41      1.008  
      42      1.008  
      43      1.008  
      44      1.008  
      45      1.008  
      46      1.008  
      47      1.008  
      48      1.008  
      49      1.008  
      50      1.008  
      51      1.008  
      52      1.008  
      53      1.008  
      54      1.008  
      55      1.008  
      56      1.008  
      57      1.008  
      58      1.008  
      59      1.008  
      60      1.008  
      61      1.008  
      62      1.008  

Pair Coeffs 

       1      0.066  3.5000000 
       2      0.066  3.5000000 
       3      0.066  3.5000000 
       4      0.066  3.5000000 
       5      0.066  3.5000000 
       6      0.066  3.5000000 
       7      0.066  3.5000000 
       8      0.066  3.5000000 
       9      0.066  3.5000000 
      10      0.066  3.5000000 
      11      0.066  3.5000000 
      12      0.066  3.5000000 
      13      0.066  3.5000000 
      14      0.066  3.5000000 
      15      0.066  3.5000000 
      16      0.066  3.5000000 
      17      0.066  3.5000000 
      18      0.066  3.5000000 
      19      0.066  3.5000000 
      20      0.070  3.5500000 
      21      0.210  2.9600000 
      22      0.170  3.1200000 
      23      0.030  2.5000000 
      24      0.030  2.5000000 
      25      0.030  2.5000000 
      26      0.030  2.5000000 
      27      0.030  2.5000000 
      28      0.030  2.5000000 
      29      0.030  2.5000000 
      30      0.030  2.5000000 
      31      0.030  2.5000000 
      32      0.030  2.5000000 
      33      0.030  2.5000000 
      34      0.030  2.5000000 
      35      0.030  2.5000000 
      36      0.030  2.5000000 
      37      0.030  2.5000000 
      38      0.030  2.5000000 
      39      0.030  2.5000000 
      40      0.030  2.5000000 
      41      0.030  2.5000000 
      42      0.030  2.5000000 
      43      0.030  2.5000000 
      44      0.030  2.5000000 
      45      0.030  2.5000000 
      46      0.030  2.5000000 
      47      0.030  2.5000000 
      48      0.030  2.5000000 
      49      0.030  2.5000000 
      50      0.030  2.5000000 
      51      0.030  2.5000000 
      52      0.030  2.5000000 
      53      0.030  2.5000000 
      54      0.030  2.5000000 
      55      0.030  2.5000000 
      56      0.030  2.5000000 
      57      0.030  2.5000000 
      58      0.030  2.5000000 
      59      0.030  2.5000000 
      60      0.030  2.5000000 
      61      0.030  2.5000000 
      62      0.000  0.0000000 

Bond Coeffs 

       1   268.0000     1.5290 
       2   268.0000     1.5290 
       3   268.0000     1.5290 
       4   268.0000     1.5290 
       5   268.0000     1.5290 
       6   268.0000     1.5290 
       7   268.0000     1.5290 
       8   268.0000     1.5290 
       9   268.0000     1.5290 
      10   268.0000     1.5290 
      11   268.0000     1.5290 
      12   268.0000     1.5290 
      13   268.0000     1.5290 
      14   268.0000     1.5290 
      15   268.0000     1.5290 
      16   268.0000     1.5290 
      17   268.0000     1.5290 
      18   268.0000     1.5290 
      19   317.0000     1.5220 
      20   570.0000     1.2290 
      21   450.0000     1.3640 
      22   340.0000     1.0900 
      23   340.0000     1.0900 
      24   340.0000     1.0900 
      25   340.0000     1.0900 
      26   340.0000     1.0900 
      27   340.0000     1.0900 
      28   340.0000     1.0900 
      29   340.0000     1.0900 
      30   340.0000     1.0900 
      31   340.0000     1.0900 
      32   340.0000     1.0900 
      33   340.0000     1.0900 
      34   340.0000     1.0900 
      35   340.0000     1.0900 
      36   340.0000     1.0900 
      37   340.0000     1.0900 
      38   340.0000     1.0900 
      39   340.0000     1.0900 
      40   340.0000     1.0900 
      41   340.0000     1.0900 
      42   340.0000     1.0900 
      43   340.0000     1.0900 
      44   340.0000     1.0900 
      45   340.0000     1.0900 
      46   340.0000     1.0900 
      47   340.0000     1.0900 
      48   340.0000     1.0900 
      49   340.0000     1.0900 
      50   340.0000     1.0900 
      51   340.0000     1.0900 
      52   340.0000     1.0900 
      53   340.0000     1.0900 
      54   340.0000     1.0900 
      55   340.0000     1.0900 
      56   340.0000     1.0900 
      57   340.0000     1.0900 
      58   340.0000     1.0900 
      59   340.0000     1.0900 
      60   340.0000     1.0900 
      61   553.0000     0.9450 

Angle Coeffs 

       1     58.350    112.700
       2     58.350    112.700
       3     58.350    112.700
       4     58.350    112.700
       5     58.350    112.700
       6     58.350    112.700
       7     58.350    112.700
       8     58.350    112.700
       9     58.350    112.700
      10     58.350    112.700
      11     58.350    112.700
      12     58.350    112.700
      13     58.350    112.700
      14     58.350    112.700
      15     58.350    112.700
      16     58.350    112.700
      17     58.350    112.700
      18     63.000    111.100
      19     80.000    120.400
      20     70.000    108.000
      21     37.500    110.700
      22     37.500    110.700
      23     37.500    110.700
      24     37.500    110.700
      25     37.500    110.700
      26     37.500    110.700
      27     37.500    110.700
      28     37.500    110.700
      29     37.500    110.700
      30     37.500    110.700
      31     37.500    110.700
      32     37.500    110.700
      33     37.500    110.700
      34     37.500    110.700
      35     37.500    110.700
      36     37.500    110.700
      37     37.500    110.700
      38     37.500    110.700
      39     37.500    110.700
      40     37.500    110.700
      41     37.500    110.700
      42     37.500    110.700
      43     37.500    110.700
      44     37.500    110.700
      45     37.500    110.700
      46     37.500    110.700
      47     37.500    110.700
      48     37.500    110.700
      49     37.500    110.700
      50     37.500    110.700
      51     37.500    110.700
      52     37.500    110.700
      53     37.500    110.700
      54     37.500    110.700
      55     37.500    110.700
      56     37.500    110.700
      57     37.500    110.700
      58     37.500    110.700
      59     37.500    110.700
      60     35.000    113.000
      61     37.500    110.700
      62     33.000    107.800
      63     33.000    107.800
      64     37.500    110.700
      65     37.500    110.700
      66     33.000    107.800
      67     37.500    110.700
      68     33.000    107.800
      69     37.500    110.700
      70     37.500    110.700
      71     33.000    107.800
      72     37.500    110.700
      73     37.500    110.700
      74     33.000    107.800
      75     33.000    107.800
      76     37.500    110.700
      77     37.500    110.700
      78     37.500    110.700
      79     80.000    121.000
      80     33.000    107.800
      81     33.000    107.800
      82     33.000    107.800
      83     37.500    110.700
      84     37.500    110.700
      85     37.500    110.700
      86     37.500    110.700
      87     37.500    110.700
      88     35.000    109.500
      89     37.500    110.700
      90     33.000    107.800
      91     33.000    107.800
      92     33.000    107.800
      93     37.500    110.700
      94     33.000    107.800
      95     33.000    107.800
      96     37.500    110.700
      97     33.000    107.800
      98     37.500    110.700
      99     33.000    107.800
     100     33.000    107.800
     101     37.500    110.700
     102     33.000    107.800
     103     33.000    107.800
     104     37.500    110.700
     105     37.500    110.700
     106     33.000    107.800
     107     37.500    110.700
     108     37.500    110.700
     109     35.000    109.500
     110     37.500    110.700
     111     37.500    110.700
     112     37.500    110.700
     113     37.500    110.700
     114     37.500    110.700
     115     37.500    110.700
     116     37.500    110.700
     117     37.500    110.700
     118     37.500    110.700

Dihedral Coeffs  

       1      1.300     -0.200      0.200      0.000 
       2      1.300     -0.200      0.200      0.000 
       3      1.300     -0.200      0.200      0.000 
       4      1.300     -0.200      0.200      0.000 
       5      1.300     -0.200      0.200      0.000 
       6      1.300     -0.200      0.200      0.000 
       7      1.300     -0.200      0.200      0.000 
       8      1.300     -0.200      0.200      0.000 
       9      1.300     -0.200      0.200      0.000 
      10      1.300     -0.200      0.200      0.000 
      11      1.300     -0.200      0.200      0.000 
      12      1.300     -0.200      0.200      0.000 
      13      1.300     -0.200      0.200      0.000 
      14      1.300     -0.200      0.200      0.000 
      15      1.300     -0.200      0.200      0.000 
      16      1.300     -0.200      0.200      0.000 
      17     -2.060     -0.313      0.315      0.000 
      18      0.000      0.000      0.000      0.000 
      19      0.000      0.000      0.300      0.000 
      20      1.500      5.500      0.000      0.000 
      21      0.000      0.000      0.300      0.000 
      22      0.000      0.000      0.300      0.000 
      23      0.000      0.000      0.300      0.000 
      24      0.000      0.000      0.300      0.000 
      25      0.000      0.000      0.300      0.000 
      26      0.000      0.000      0.000      0.000 
      27      0.000      0.000      0.300      0.000 
      28      0.000      0.000      0.300      0.000 
      29      0.000      0.000      0.300      0.000 
      30      0.000      0.000      0.300      0.000 
      31      0.000      0.000      0.300      0.000 
      32      0.000      0.000      0.300      0.000 
      33      0.000      0.000      0.300      0.000 
      34      0.000      0.000      0.300      0.000 
      35      0.000      0.000      0.300      0.000 
      36      0.000      0.000      0.300      0.000 
      37      0.000      0.000      0.000      0.000 
      38      0.000      0.000      0.300      0.000 
      39      0.000      0.000      0.300      0.000 
      40      0.000      0.000      0.300      0.000 
      41      0.000      0.000      0.300      0.000 
      42      0.000      0.000      0.300      0.000 
      43      0.000      0.000      0.300      0.000 
      44      0.000      0.000      0.300      0.000 
      45      0.000      0.000      0.300      0.000 
      46      0.000      0.000      0.300      0.000 
      47      0.000      0.000      0.300      0.000 
      48      0.000      0.000      0.300      0.000 
      49      0.000      0.000      0.300      0.000 
      50      0.000      0.000      0.300      0.000 
      51      0.000      0.000      0.300      0.000 
      52      0.000      0.000      0.300      0.000 
      53      0.000      0.000      0.300      0.000 
      54      0.000      0.000      0.300      0.000 
      55      0.000      0.000      0.300      0.000 
      56      0.000      0.000      0.300      0.000 
      57      0.000      0.000      0.300      0.000 
      58      0.000      0.000      0.300      0.000 
      59      0.000      0.000      0.300      0.000 
      60      0.000      0.000      0.300      0.000 
      61      0.000      0.000      0.300      0.000 
      62      0.000      0.000      0.300      0.000 
      63      0.000      0.000      0.300      0.000 
      64      0.000      0.000      0.300      0.000 
      65      0.000      0.000      0.300      0.000 
      66      0.000      0.000      0.300      0.000 
      67      0.000      0.000      0.300      0.000 
      68      0.000      0.000      0.300      0.000 
      69      0.000      0.000      0.300      0.000 
      70      0.000      0.000      0.300      0.000 
      71      0.000      0.000      0.300      0.000 
      72      0.000      0.000      0.300      0.000 
      73      0.000      0.000      0.300      0.000 
      74      0.000      0.000      0.300      0.000 
      75      0.000      0.000      0.300      0.000 
      76      0.000      0.000      0.300      0.000 
      77      0.000      0.000      0.300      0.000 
      78      0.000      0.000      0.300      0.000 
      79      0.000      0.000      0.300      0.000 
      80      0.000      0.000      0.300      0.000 
      81      0.000      0.000      0.300      0.000 
      82      0.000      0.000      0.300      0.000 
      83      0.000      0.000      0.300      0.000 
      84      0.000      0.000      0.300      0.000 
      85      0.000      0.000      0.300      0.000 
      86      0.000      0.000      0.300      0.000 
      87      0.000      0.000      0.300      0.000 
      88      0.000      0.000      0.300      0.000 
      89      0.000      0.000      0.300      0.000 
      90      0.000      0.000      0.300      0.000 
      91      0.000      0.000      0.300      0.000 
      92      0.000      0.000      0.300      0.000 
      93      0.000      0.000      0.000      0.000 
      94      0.000      0.000      0.300      0.000 
      95      0.000      0.000      0.000      0.000 
      96      0.000      0.000      0.300      0.000 
      97      0.000      0.000      0.300      0.000 
      98      0.000      0.000      0.300      0.000 
      99      0.000      0.000      0.300      0.000 
     100      0.000      0.000      0.300      0.000 
     101      0.000      0.000      0.300      0.000 
     102      0.000      0.000      0.300      0.000 
     103      0.000      0.000      0.300      0.000 
     104      0.000      0.000      0.300      0.000 
     105      0.000      0.000      0.300      0.000 
     106      0.000      0.000      0.300      0.000 
     107      0.000      0.000      0.300      0.000 
     108      0.000      0.000      0.300      0.000 
     109      0.000      0.000      0.300      0.000 
     110      0.000      0.000      0.300      0.000 
     111      0.000      0.000     -0.100      0.000 
     112      0.000      0.000      0.300      0.000 
     113      0.000      0.000      0.300      0.000 
     114      0.000      0.000      0.300      0.000 
     115      0.000      0.000      0.300      0.000 
     116      0.000      0.000      0.300      0.000 
     117      0.000      0.000      0.300      0.000 
     118      0.000      0.000      0.300      0.000 
     119      0.000      0.000      0.300      0.000 
     120      0.000      0.000      0.300      0.000 
     121      0.000      0.000      0.300      0.000 
     122      0.000      0.000      0.300      0.000 
     123      0.000      0.000      0.300      0.000 
     124      0.000      0.000      0.300      0.000 
     125      0.000      0.000      0.300      0.000 
     126      1.000      0.546      0.450      0.000 
     127      0.000      0.000      0.300      0.000 
     128      0.000      0.000      0.300      0.000 
     129      0.000      0.000      0.300      0.000 
     130      0.000      0.000      0.300      0.000 
     131      0.000      0.000      0.300      0.000 
     132      0.000      0.000      0.300      0.000 
     133      0.000      0.000      0.300      0.000 
     134      0.000      0.000      0.300      0.000 
     135      0.000      0.000      0.300      0.000 
     136      0.000      0.000      0.300      0.000 
     137      0.000      0.000      0.300      0.000 
     138      0.000      5.500      0.000      0.000 
     139      0.000      0.000      0.300      0.000 
     140      0.000      0.000      0.300      0.000 
     141      0.000      0.000      0.300      0.000 
     142      0.000      0.000      0.300      0.000 
     143      0.000      0.000      0.300      0.000 
     144      0.000      0.000      0.300      0.000 
     145      0.000      0.000      0.300      0.000 
     146      0.000      0.000      0.300      0.000 
     147      0.000      0.000      0.300      0.000 
     148      0.000      0.000      0.300      0.000 
     149      0.000      0.000      0.300      0.000 
     150      0.000      0.000      0.300      0.000 
     151      0.000      0.000      0.300      0.000 
     152      0.000      0.000      0.300      0.000 
     153      0.000      0.000      0.300      0.000 
     154      0.000      0.000      0.300      0.000 
     155      0.000      0.000      0.300      0.000 
     156      0.000      0.000      0.300      0.000 
     157      0.000      0.000      0.300      0.000 
     158      0.000      0.000      0.300      0.000 
     159      0.000      0.000     -0.100      0.000 
     160      0.000      0.000      0.300      0.000 
     161      0.000      0.000      0.300      0.000 
     162      0.000      0.000      0.300      0.000 
     163      0.000      0.000      0.300      0.000 
     164      0.000      0.000      0.300      0.000 
     165      0.000      0.000      0.300      0.000 
     166      0.000      0.000      0.300      0.000 
     167      0.000      0.000      0.300      0.000 
     168      0.000      0.000      0.300      0.000 
     169      0.000      0.000      0.300      0.000 
     170      0.000      0.000      0.300      0.000 

Improper Coeffs 

       1     10.500      -1       2 
       2      0.000      -1       2 
       3      0.000      -1       2 
       4      0.000      -1       2 
       5      0.000      -1       2 
       6      0.000      -1       2 
       7      0.000      -1       2 
       8      0.000      -1       2 
       9      0.000      -1       2 
      10      0.000      -1       2 
      11      0.000      -1       2 
      12      0.000      -1       2 
      13      0.000      -1       2 
      14      0.000      -1       2 
      15      0.000      -1       2 
      16      0.000      -1       2 
      17      0.000      -1       2 
      18      0.000      -1       2 
      19      0.000      -1       2 
      20      0.000      -1       2 
      21      0.000      -1       2 
      22      0.000      -1       2 
      23      0.000      -1       2 
      24      0.000      -1       2 
      25      0.000      -1       2 
      26      0.000      -1       2 
      27      0.000      -1       2 
      28      0.000      -1       2 
      29      0.000      -1       2 
      30      0.000      -1       2 
      31      0.000      -1       2 
      32      0.000      -1       2 
      33      0.000      -1       2 
      34      0.000      -1       2 
      35      0.000      -1       2 
      36      0.000      -1       2 
      37      0.000      -1       2 
      38      0.000      -1       2 
      39      0.000      -1       2 

Atoms 

     1      1      1 -0.23880000    1.000  1.00000  0.00000
     2      1      2 -0.17960000   -0.519  1.00000  0.00000
     3      1      3 -0.17880000   -1.069  1.00000  1.42352
     4      1      4 -0.17950000   -2.595  1.00180  1.42352
     5      1      5 -0.17980000   -3.135  1.00359  2.85016
     6      1      6 -0.17970000   -4.660  1.00719  2.85342
     7      1      7 -0.17980000   -5.194  1.01077  4.28108
     8      1      8 -0.17980000   -6.717  1.01617  4.28433
     9      1      9 -0.17990000   -7.249  1.01794  5.71163
    10      1     10 -0.17980000   -8.773  1.02154  5.71489
    11      1     11 -0.17990000   -9.303  1.02150  7.14263
    12      1     12 -0.17990000  -10.826  1.02329  7.14914
    13      1     13 -0.17960000  -11.354  1.02145  8.57868
    14      1     14 -0.17980000  -12.878  1.02503  8.58845
    15      1     15 -0.17900000  -13.410  1.02500 10.01760
    16      1     16 -0.17900000  -14.935  1.03041 10.01923
    17      1     17 -0.17990000  -15.488  1.02866 11.44196
    18      1     18 -0.17120000  -17.014  1.03594 11.42072
    19      1     19 -0.26030000  -17.595  1.03256 12.83190
    20      1     20 0.50960000  -19.107  1.04156 12.80762
    21      1     21 -0.44450000  -19.801  1.05047 11.80401
    22      1     22 -0.56040000  -19.636  1.04027 14.05389
    23      1     23 0.08080000    1.378  0.99870 -1.02675
    24      1     24 0.08080000    1.390  0.11261  0.50875
    25      1     25 0.08080000    1.390  1.88862  0.50647
    26      1     26 0.08840000   -0.881  0.11697 -0.53938
    27      1     27 0.08840000   -0.881  1.88303 -0.53938
    28      1     28 0.08950000   -0.700  1.88214  1.96126
    29      1     29 0.08950000   -0.702  0.11644  1.96049
    30      1     30 0.08960000   -2.966  0.11811  0.89012
    31      1     31 0.08960000   -2.964  1.88548  0.88870
    32      1     32 0.08950000   -2.764  1.88605  3.38542
    33      1     33 0.08950000   -2.768  0.11975  3.38607
    34      1     34 0.09000000   -5.033  0.12347  2.32150
    35      1     35 0.09000000   -5.029  1.89083  2.31869
    36      1     36 0.08980000   -4.819  1.89319  4.81401
    37      1     37 0.08980000   -4.826  0.12630  4.81577
    38      1     38 0.09020000   -7.092  0.13384  3.75094
    39      1     39 0.09020000   -7.085  1.90125  3.75106
    40      1     40 0.08980000   -6.875  1.90046  6.24495
    41      1     41 0.08980000   -6.880  0.13350  6.24518
    42      1     42 0.09040000   -9.146  0.13921  5.18077
    43      1     43 0.09040000   -9.142  1.90665  5.18232
    44      1     44 0.08970000   -8.929  1.90393  7.67622
    45      1     45 0.08970000   -8.931  0.13761  7.67546
    46      1     46 0.09060000  -11.200  0.14145  6.61397
    47      1     47 0.09060000  -11.198  1.90786  6.61702
    48      1     48 0.08970000  -10.977  1.90283  9.11200
    49      1     49 0.08970000  -10.982  0.13605  9.10813
    50      1     50 0.09120000  -13.251  0.14313  8.05333
    51      1     51 0.09120000  -13.247  1.90958  8.05497
    52      1     52 0.08960000  -13.034  1.90631 10.55134
    53      1     53 0.08960000  -13.042  0.13896 10.54864
    54      1     54 0.09400000  -15.304  0.14987  9.47923
    55      1     55 0.09400000  -15.298  1.91639  9.48381
    56      1     56 0.08840000  -15.119  1.90926 11.98199
    57      1     57 0.08840000  -15.127  0.14195 11.97694
    58      1     58 0.11110000  -17.378  0.15927 10.86962
    59      1     59 0.11110000  -17.370  1.92066 10.87729
    60      1     60 0.12140000  -17.253  1.92177 13.37267
    61      1     61 0.12140000  -17.264  0.13430 13.36404
    62      1     62 0.45110000  -18.967  1.03381 14.76347

Bonds 

     1      1      2      1
     2      2      3      2
     3      3      4      3
     4      4      5      4
     5      5      6      5
     6      6      7      6
     7      7      8      7
     8      8      9      8
     9      9     10      9
    10     10     11     10
    11     11     12     11
    12     12     13     12
    13     13     14     13
    14     14     15     14
    15     15     16     15
    16     16     17     16
    17     17     18     17
    18     18     19     18
    19     19     20     19
    20     20     21     20
    21     21     22     20
    22     22     23      1
    23     23     24      1
    24     24     25      1
    25     25     26      2
    26     26     27      2
    27     27     28      3
    28     28     29      3
    29     29     30      4
    30     30     31      4
    31     31     32      5
    32     32     33      5
    33     33     34      6
    34     34     35      6
    35     35     36      7
    36     36     37      7
    37     37     38      8
    38     38     39      8
    39     39     40      9
    40     40     41      9
    41     41     42     10
    42     42     43     10
    43     43     44     11
    44     44     45     11
    45     45     46     12
    46     46     47     12
    47     47     48     13
    48     48     49     13
    49     49     50     14
    50     50     51     14
    51     51     52     15
    52     52     53     15
    53     53     54     16
    54     54     55     16
    55     55     56     17
    56     56     57     17
    57     57     58     18
    58     58     59     18
    59     59     60     19
    60     60     61     19
    61     61     62     22

Angles 

     1      1      1      2      3
     2      2      2      3      4
     3      3      3      4      5
     4      4      4      5      6
     5      5      5      6      7
     6      6      6      7      8
     7      7      7      8      9
     8      8      8      9     10
     9      9      9     10     11
    10     10     10     11     12
    11     11     11     12     13
    12     12     12     13     14
    13     13     13     14     15
    14     14     14     15     16
    15     15     15     16     17
    16     16     16     17     18
    17     17     17     18     19
    18     18     18     19     20
    19     19     19     20     21
    20     20     19     20     22
    21     21      2      1     23
    22     22      2      1     24
    23     23      2      1     25
    24     24      1      2     26
    25     25      1      2     27
    26     26      2      3     28
    27     27      2      3     29
    28     28      3      4     30
    29     29      3      4     31
    30     30      4      5     32
    31     31      4      5     33
    32     32      5      6     34
    33     33      5      6     35
    34     34      6      7     36
    35     35      6      7     37
    36     36      7      8     38
    37     37      7      8     39
    38     38      8      9     40
    39     39      8      9     41
    40     40      9     10     42
    41     41      9     10     43
    42     42     10     11     44
    43     43     10     11     45
    44     44     11     12     46
    45     45     11     12     47
    46     46     12     13     48
    47     47     12     13     49
    48     48     13     14     50
    49     49     13     14     51
    50     50     14     15     52
    51     51     14     15     53
    52     52     15     16     54
    53     53     15     16     55
    54     54     16     17     56
    55     55     16     17     57
    56     56     17     18     58
    57     57     17     18     59
    58     58     18     19     60
    59     59     18     19     61
    60     60     20     22     62
    61     61     18     17     56
    62     62     54     16     55
    63     63     30      4     31
    64     64      3      2     26
    65     65     15     14     50
    66     66     34      6     35
    67     67     15     14     51
    68     68     46     12     47
    69     69     14     13     49
    70     70     12     11     44
    71     71     50     14     51
    72     72     11     10     43
    73     73      6      5     32
    74     74     44     11     45
    75     75     48     13     49
    76     76      8      7     36
    77     77     14     13     48
    78     78      6      5     33
    79     79     21     20     22
    80     80     28      3     29
    81     81     23      1     24
    82     82     36      7     37
    83     83      3      2     27
    84     84      9      8     39
    85     85     10      9     41
    86     86      4      3     29
    87     87      4      3     28
    88     88     20     19     61
    89     89     17     16     55
    90     90     40      9     41
    91     91     23      1     25
    92     92     58     18     59
    93     93      7      6     35
    94     94     52     15     53
    95     95     60     19     61
    96     96     13     12     46
    97     97     42     10     43
    98     98      7      6     34
    99     99     26      2     27
   100    100     32      5     33
   101    101     19     18     59
   102    102     24      1     25
   103    103     56     17     57
   104    104     10      9     40
   105    105      5      4     30
   106    106     38      8     39
   107    107     13     12     47
   108    108     16     15     53
   109    109     20     19     60
   110    110      8      7     37
   111    111     11     10     42
   112    112     12     11     45
   113    113      9      8     38
   114    114      5      4     31
   115    115     18     17     57
   116    116     17     16     54
   117    117     19     18     58
   118    118     16     15     52

Dihedrals

     1      1      4      3      2      1 
     2      2      5      4      3      2 
     3      3      6      5      4      3 
     4      4      7      6      5      4 
     5      5      8      7      6      5 
     6      6      9      8      7      6 
     7      7     10      9      8      7 
     8      8     11     10      9      8 
     9      9     12     11     10      9 