#C4_acid

14 atoms
6 atom types

13 bonds
6 bond types

22 angles
9 angle types

26 dihedrals
7 dihedral types

7 impropers
2 improper types

-3.30539  46.69461  xlo xhi
0  50.10589  ylo yhi
-1.02721  48.97279  zlo zhi

Masses

1  12.011
2  12.011
3  15.999
4  15.999
5  1.008
6  1.008

Pair Coeffs

1  0.066  3.5
2  0.07  3.55
3  0.21  2.96
4  0.17  3.12
5  0.03  2.5
6  0.0  0.0

Bond Coeffs

1  268.0  1.529
2  317.0  1.522
3  570.0  1.229
4  450.0  1.364
5  340.0  1.09
6  553.0  0.945

Angle Coeffs

1  58.35  112.7
2  63.0  111.1
3  80.0  120.4
4  70.0  108.0
5  37.5  110.7
6  35.0  113.0
7  80.0  121.0
8  33.0  107.8
9  35.0  109.5

Dihedral Coeffs

1  -2.06  -0.313  0.315  0.0
2  0.0  0.0  0.0  0.0
3  0.0  0.0  0.3  0.0
4  1.5  5.5  0.0  0.0
5  1.0  0.546  0.45  0.0
6  0.0  5.5  0.0  0.0
7  0.0  0.0  -0.1  0.0

Improper Coeffs

1  10.5  -1.0  2.0
2  0.0  -1.0  2.0

Atoms # full

1  1  1  -0.2423   1   1   0
2  1  1  -0.1696  -0.52   1   0
3  1  1  -0.26  -1.081   1   1.42
4  1  2   0.5095  -2.592   1.00177   1.42813
5  1  3  -0.4446  -3.305   1.00307   0.43827
6  1  4  -0.5604  -3.096   1.0002   2.68479
7  1  5   0.0847   1.378   1.0013  -1.02721
8  1  5   0.0847   1.392   0.11145   0.50507
9  1  5   0.0847   1.392   1.88722   0.50729
10  1  5   0.11  -0.881   0.11954  -0.54493
11  1  5   0.11  -0.881   1.88049  -0.54495
12  1  5   0.1211  -0.735   1.89282   1.95271
13  1  5   0.1211  -0.737   0.10589   1.95187
14  1  6   0.4512  -2.412   0.99819   3.38082

Bonds

1  1  2  1
2  1  3  2
3  2  4  3
4  3  5  4
5  4  6  4
6  5  7  1
7  5  8  1
8  5  9  1
9  5  10  2
10  5  11  2
11  5  12  3
12  5  13  3
13  6  14  6

Angles

1  1  1  2  3
2  2  2  3  4
3  3  3  4  5
4  4  3  4  6
5  5  2  1  7
6  5  2  1  8
7  5  2  1  9
8  5  1  2  10
9  5  1  2  11
10  5  2  3  12
11  5  2  3  13
12  6  4  6  14
13  7  5  4  6
14  8  8  1  9
15  5  3  2  11
16  8  10  2  11
17  8  7  1  9
18  8  12  3  13
19  9  4  3  12
20  8  7  1  8
21  9  4  3  13
22  5  3  2  10

Dihedrals

1  1  4  3  2  1
2  2  5  4  3  2
3  3  7  1  2  3
4  4  14  6  4  3
5  2  13  3  4  6
6  3  13  3  2  10
7  3  12  3  2  10
8  3  9  1  2  3
9  5  6  4  3  2
10  3  12  3  2  1
11  6  14  6  4  5
12  2  12  3  4  6
13  2  13  3  4  5
14  2  12  3  4  5
15  3  13  3  2  11
16  3  10  2  1  7
17  3  8  1  2  3
18  3  10  2  1  9
19  3  11  2  1  8
20  3  12  3  2  11
21  3  11  2  1  7
22  3  10  2  1  8
23  7  11  2  3  4
24  3  13  3  2  1
25  7  10  2  3  4
26  3  11  2  1  9

Impropers

1  1  4  3  5  6
2  2  1  2  7  8
3  2  1  9  7  2
4  2  2  1  10  3
5  2  2  1  11  3
6  2  3  4  2  12
7  2  3  2  4  13
