#C4_anion

13 atoms
4 atom types

12 bonds
4 bond types

21 angles
7 angle types

24 dihedrals
4 dihedral types

7 impropers
2 improper types

-3.24486  46.75514  xlo xhi
0  50.11152  ylo yhi
-1.02718  48.97282  zlo zhi

Masses

1  12.011
2  12.011
3  15.999
4  1.008

Pair Coeffs

1  0.066  3.5
2  0.07  3.55
3  0.21  2.96
4  0.03  2.5

Bond Coeffs

1  268.0  1.529
2  317.0  1.522
3  656.0  1.25
4  340.0  1.09

Angle Coeffs

1  58.35  112.7
2  63.0  111.1
3  70.0  117.0
4  37.5  110.7
5  80.0  126.0
6  33.0  107.8
7  35.0  109.5

Dihedral Coeffs

1  -2.06  -0.313  0.315  0.0
2  0.0  0.0  0.0  0.0
3  0.0  0.0  0.3  0.0
4  0.0  0.0  -0.1  0.0

Improper Coeffs

1  10.5  -1.0  2.0
2  0.0  -1.0  2.0

Atoms # full

1  1  1  -0.2086   1   1   0
2  1  1  -0.1372  -0.52   1   0
3  1  1  -0.2323  -1.08   1   1.41779
4  1  2   0.4278  -2.609   0.99825   1.51453
5  1  3  -0.6323  -3.245   0.99699   0.42495
6  1  3  -0.6323  -3.049   0.99682   2.70086
7  1  4   0.0482   1.378   1.0013  -1.02718
8  1  4   0.0482   1.392   0.11152   0.50503
9  1  4   0.0482   1.391   1.88762   0.50752
10  1  4   0.0768  -0.879   0.11838  -0.54421
11  1  4   0.0768  -0.879   1.8816  -0.5442
12  1  4   0.0583  -0.715   1.88507   1.95383
13  1  4   0.0583  -0.713   0.1163   1.95465

Bonds

1  1  2  1
2  1  3  2
3  2  4  3
4  3  5  4
5  3  6  4
6  4  7  1
7  4  8  1
8  4  9  1
9  4  10  2
10  4  11  2
11  4  12  3
12  4  13  3

Angles

1  1  1  2  3
2  2  2  3  4
3  3  3  4  5
4  3  3  4  6
5  4  2  1  7
6  4  2  1  8
7  4  2  1  9
8  4  1  2  10
9  4  1  2  11
10  4  2  3  12
11  4  2  3  13
12  4  3  2  11
13  5  5  4  6
14  6  10  2  11
15  7  4  3  13
16  4  3  2  10
17  6  7  1  8
18  6  7  1  9
19  6  8  1  9
20  6  12  3  13
21  7  4  3  12

Dihedrals

1  1  4  3  2  1
2  2  5  4  3  2
3  3  7  1  2  3
4  2  13  3  4  6
5  3  11  2  1  7
6  3  9  1  2  3
7  2  6  4  3  2
8  3  12  3  2  1
9  2  12  3  4  6
10  2  13  3  4  5
11  2  12  3  4  5
12  3  13  3  2  11
13  3  10  2  1  7
14  3  8  1  2  3
15  3  12  3  2  10
16  3  10  2  1  9
17  3  11  2  1  8
18  3  12  3  2  11
19  3  13  3  2  10
20  3  10  2  1  8
21  4  11  2  3  4
22  3  13  3  2  1
23  4  10  2  3  4
24  3  11  2  1  9

Impropers

1  1  4  3  5  6
2  2  1  2  7  8
3  2  1  9  7  2
4  2  2  1  10  3
5  2  2  1  11  3
6  2  3  4  2  12
7  2  3  2  4  13
