LAMMPS data file Created by LigParGen - (Written by Leela S. Dodda)

      13 atoms
      12 bonds
      21 angles
      24 dihedrals
       7 impropers
 
      13 atom types
      12 bond types
      21 angle types
      24 dihedral types
       7 improper types
 
   -3.244860    46.755140 xlo xhi
    0.111520    50.111520 ylo yhi
   -1.027180    48.972820 zlo zhi

Masses

       1     12.011  
       2     12.011  
       3     12.011  
       4     12.011  
       5     15.999  
       6     15.999  
       7      1.008  
       8      1.008  
       9      1.008  
      10      1.008  
      11      1.008  
      12      1.008  
      13      1.008  

Pair Coeffs 

       1      0.066  3.5000000 
       2      0.066  3.5000000 
       3      0.066  3.5000000 
       4      0.070  3.5500000 
       5      0.210  2.9600000 
       6      0.210  2.9600000 
       7      0.030  2.5000000 
       8      0.030  2.5000000 
       9      0.030  2.5000000 
      10      0.030  2.5000000 
      11      0.030  2.5000000 
      12      0.030  2.5000000 
      13      0.030  2.5000000 

Bond Coeffs 

       1   268.0000     1.5290 
       2   268.0000     1.5290 
       3   317.0000     1.5220 
       4   656.0000     1.2500 
       5   656.0000     1.2500 
       6   340.0000     1.0900 
       7   340.0000     1.0900 
       8   340.0000     1.0900 
       9   340.0000     1.0900 
      10   340.0000     1.0900 
      11   340.0000     1.0900 
      12   340.0000     1.0900 

Angle Coeffs 

       1     58.350    112.700
       2     63.000    111.100
       3     70.000    117.000
       4     70.000    117.000
       5     37.500    110.700
       6     37.500    110.700
       7     37.500    110.700
       8     37.500    110.700
       9     37.500    110.700
      10     37.500    110.700
      11     37.500    110.700
      12     37.500    110.700
      13     80.000    126.000
      14     33.000    107.800
      15     35.000    109.500
      16     37.500    110.700
      17     33.000    107.800
      18     33.000    107.800
      19     33.000    107.800
      20     33.000    107.800
      21     35.000    109.500

Dihedral Coeffs  

       1     -2.060     -0.313      0.315      0.000 
       2      0.000      0.000      0.000      0.000 
       3      0.000      0.000      0.300      0.000 
       4      0.000      0.000      0.000      0.000 
       5      0.000      0.000      0.300      0.000 
       6      0.000      0.000      0.300      0.000 
       7      0.000      0.000      0.000      0.000 
       8      0.000      0.000      0.300      0.000 
       9      0.000      0.000      0.000      0.000 
      10      0.000      0.000      0.000      0.000 
      11      0.000      0.000      0.000      0.000 
      12      0.000      0.000      0.300      0.000 
      13      0.000      0.000      0.300      0.000 
      14      0.000      0.000      0.300      0.000 
      15      0.000      0.000      0.300      0.000 
      16      0.000      0.000      0.300      0.000 
      17      0.000      0.000      0.300      0.000 
      18      0.000      0.000      0.300      0.000 
      19      0.000      0.000      0.300      0.000 
      20      0.000      0.000      0.300      0.000 
      21      0.000      0.000     -0.100      0.000 
      22      0.000      0.000      0.300      0.000 
      23      0.000      0.000     -0.100      0.000 
      24      0.000      0.000      0.300      0.000 

Improper Coeffs 

       1     10.500      -1       2 
       2      0.000      -1       2 
       3      0.000      -1       2 
       4      0.000      -1       2 
       5      0.000      -1       2 
       6      0.000      -1       2 
       7      0.000      -1       2 

Atoms 

     1      1      1 -0.20860000    1.000  1.00000  0.00000
     2      1      2 -0.13720000   -0.520  1.00000  0.00000
     3      1      3 -0.23230000   -1.080  1.00000  1.41779
     4      1      4 0.42780000   -2.609  0.99825  1.51453
     5      1      5 -0.63230000   -3.245  0.99699  0.42495
     6      1      6 -0.63230000   -3.049  0.99682  2.70086
     7      1      7 0.04820000    1.378  1.00130 -1.02718
     8      1      8 0.04820000    1.392  0.11152  0.50503
     9      1      9 0.04820000    1.391  1.88762  0.50752
    10      1     10 0.07680000   -0.879  0.11838 -0.54421
    11      1     11 0.07680000   -0.879  1.88160 -0.54420
    12      1     12 0.05830000   -0.715  1.88507  1.95383
    13      1     13 0.05830000   -0.713  0.11630  1.95465

Bonds 

     1      1      2      1
     2      2      3      2
     3      3      4      3
     4      4      5      4
     5      5      6      4
     6      6      7      1
     7      7      8      1
     8      8      9      1
     9      9     10      2
    10     10     11      2
    11     11     12      3
    12     12     13      3

Angles 

     1      1      1      2      3
     2      2      2      3      4
     3      3      3      4      5
     4      4      3      4      6
     5      5      2      1      7
     6      6      2      1      8
     7      7      2      1      9
     8      8      1      2     10
     9      9      1      2     11
    10     10      2      3     12
    11     11      2      3     13
    12     12      3      2     11
    13     13      5      4      6
    14     14     10      2     11
    15     15      4      3     13
    16     16      3      2     10
    17     17      7      1      8
    18     18      7      1      9
    19     19      8      1      9
    20     20     12      3     13
    21     21      4      3     12

Dihedrals

     1      1      4      3      2      1 
     2      2      5      4      3      2 
     3      3      7      1      2      3 
     4      4     13      3      4      6 
     5      5     11      2      1      7 
     6      6      9      1      2      3 
     7      7      6      4      3      2 
     8      8     12      3      2      1 
     9      9     12      3      4      6 
    10     10     13      3      4      5 
    11     11     12      3      4      5 
    12     12     13      3      2     11 
    13     13     10      2      1      7 
    14     14      8      1      2      3 
    15     15     12      3      2     10 
    16     16     10      2      1      9 
    17     17     11      2      1      8 
    18     18     12      3      2     11 
    19     19     13      3      2     10 
    20     20     10      2      1      8 
    21     21     11      2      3      4 
    22     22     13      3      2      1 
    23     23     10      2      3      4 
    24     24     11      2      1      9 

Impropers

     1      1      4      3      5      6 
     2      2      1      2      7      8 
     3      3      1      9      7      2 
     4      4      2      1     10      3 
     5      5      2      1     11      3 
     6      6      3      4      2     12 
     7      7      3      2      4     13 

