LAMMPS data file Created by LigParGen - (Written by Leela S. Dodda)

      10 atoms
       9 bonds
      15 angles
      12 dihedrals
       5 impropers
 
      10 atom types
       9 bond types
      15 angle types
      12 dihedral types
       5 improper types
 
   -1.808730    48.191270 xlo xhi
    0.100050    50.100050 ylo yhi
   -2.146220    47.853780 zlo zhi

Masses

       1     12.011  
       2     12.011  
       3     15.999  
       4     12.011  
       5      1.008  
       6      1.008  
       7      1.008  
       8      1.008  
       9      1.008  
      10      1.008  

Pair Coeffs 

       1      0.066  3.5000000 
       2      0.070  3.5500000 
       3      0.210  2.9600000 
       4      0.066  3.5000000 
       5      0.030  2.5000000 
       6      0.030  2.5000000 
       7      0.030  2.5000000 
       8      0.030  2.5000000 
       9      0.030  2.5000000 
      10      0.030  2.5000000 

Bond Coeffs 

       1   317.0000     1.5220 
       2   570.0000     1.2290 
       3   317.0000     1.5220 
       4   340.0000     1.0900 
       5   340.0000     1.0900 
       6   340.0000     1.0900 
       7   340.0000     1.0900 
       8   340.0000     1.0900 
       9   340.0000     1.0900 

Angle Coeffs 

       1     80.000    120.400
       2     70.000    116.000
       3     35.000    109.500
       4     35.000    109.500
       5     35.000    109.500
       6     35.000    109.500
       7     35.000    109.500
       8     35.000    109.500
       9     33.000    107.800
      10     33.000    107.800
      11     33.000    107.800
      12     80.000    120.400
      13     33.000    107.800
      14     33.000    107.800
      15     33.000    107.800

Dihedral Coeffs  

       1      0.000      0.000      0.000      0.000 
       2      0.000      0.000      0.275      0.000 
       3      0.000      0.000      0.000      0.000 
       4      0.000      0.000      0.275      0.000 
       5      0.000      0.000      0.275      0.000 
       6      0.000      0.000      0.000      0.000 
       7      0.000      0.000      0.000      0.000 
       8      0.000      0.000      0.275      0.000 
       9      0.000      0.000      0.000      0.000 
      10      0.000      0.000      0.000      0.000 
      11      0.000      0.000      0.275      0.000 
      12      0.000      0.000      0.275      0.000 

Improper Coeffs 

       1     10.500      -1       2 
       2      0.000      -1       2 
       3      0.000      -1       2 
       4      0.000      -1       2 
       5      0.000      -1       2 

Atoms 

     1      1      1 -0.30450000    1.000  1.00000  0.00000
     2      1      2 0.36120000   -0.504  1.00000  0.00000
     3      1      3 -0.45200000   -1.147  1.00000  1.04942
     4      1      4 -0.30340000   -1.192  0.99831 -1.33816
     5      1      5 0.11690000    1.368  1.00000  1.02986
     6      1      6 0.11690000    1.365  1.89706 -0.50596
     7      1      7 0.11690000    1.365  0.10295 -0.50596
     8      1      8 0.11600000   -0.456  0.99729 -2.14622
     9      1      9 0.11600000   -1.809  1.89634 -1.42704
    10      1     10 0.11600000   -1.809  0.10005 -1.42477

Bonds 

     1      1      2      1
     2      2      3      2
     3      3      4      2
     4      4      5      1
     5      5      6      1
     6      6      7      1
     7      7      8      4
     8      8      9      4
     9      9     10      4

Angles 

     1      1      1      2      3
     2      2      1      2      4
     3      3      2      1      5
     4      4      2      1      6
     5      5      2      1      7
     6      6      2      4      8
     7      7      2      4      9
     8      8      2      4     10
     9      9      8      4     10
    10     10      6      1      7
    11     11      5      1      6
    12     12      3      2      4
    13     13      9      4     10
    14     14      8      4      9
    15     15      5      1      7

Dihedrals

     1      1      5      1      2      3 
     2      2      8      4      2      1 
     3      3      8      4      2      3 
     4      4     10      4      2      1 
     5      5      7      1      2      4 
     6      6     10      4      2      3 
     7      7      9      4      2      3 
     8      8      5      1      2      4 
     9      9      6      1      2      3 
    10     10      7      1      2      3 
    11     11      6      1      2      4 
    12     12      9      4      2      1 

Impropers

     1      1      2      1      3      4 
     2      2      1      2      5      6 
     3      3      1      2      5      7 
     4      4      4      9      2      8 
     5      5      4      8     10      2 

