#slvnt_acetone

10 atoms
4 atom types

9 bonds
3 bond types

15 angles
4 angle types

12 dihedrals
2 dihedral types

5 impropers
2 improper types

-1.5885  1.5885  xlo xhi
-0.898505  0.898505  ylo yhi
-1.59782  1.59782  zlo zhi

Masses

1  12.011
2  12.011
3  15.999
4  1.008

Pair Coeffs

1  0.066  3.5
2  0.07  3.55
3  0.21  2.96
4  0.03  2.5

Bond Coeffs

1  317.0  1.522
2  570.0  1.229
3  340.0  1.09

Angle Coeffs

1  80.0  120.4
2  70.0  116.0
3  35.0  109.5
4  33.0  107.8

Dihedral Coeffs

1  0.0  0.0  0.0  0.0
2  0.0  0.0  0.275  0.0

Improper Coeffs

1  10.5  -1.0  2.0
2  0.0  -1.0  2.0

Atoms # full

1  1  1  -0.3045   1.2205    0.00144500000000003    0.5484 
2  1  2   0.3612  -0.2835    0.00144500000000003    0.5484 
3  1  3  -0.452  -0.9265    0.00144500000000003    1.59782 
4  1  1  -0.3034  -0.9715   -0.00024499999999994   -0.78976 
5  1  4   0.1169   1.5885    0.00144500000000003    1.57826 
6  1  4   0.1169   1.5855    0.898505    0.04244 
7  1  4   0.1169   1.5855   -0.895605    0.04244 
8  1  4   0.116  -0.2355   -0.00126499999999996   -1.59782 
9  1  4   0.116  -1.5885    0.897785   -0.87864 
10  1  4   0.116  -1.5885   -0.898505   -0.87637 

Bonds

1  1  2  1
2  2  3  2
3  1  4  2
4  3  5  1
5  3  6  1
6  3  7  1
7  3  8  4
8  3  9  4
9  3  10  4

Angles

1  1  1  2  3
2  2  1  2  4
3  3  2  1  5
4  3  2  1  6
5  3  2  1  7
6  3  2  4  8
7  3  2  4  9
8  3  2  4  10
9  4  8  4  10
10  4  6  1  7
11  4  5  1  6
12  1  3  2  4
13  4  9  4  10
14  4  8  4  9
15  4  5  1  7

Dihedrals

1  1  5  1  2  3
2  2  8  4  2  1
3  1  8  4  2  3
4  2  10  4  2  1
5  2  7  1  2  4
6  1  10  4  2  3
7  1  9  4  2  3
8  2  5  1  2  4
9  1  6  1  2  3
10  1  7  1  2  3
11  2  6  1  2  4
12  2  9  4  2  1

Impropers

1  1  2  1  3  4
2  2  1  2  5  6
3  2  1  2  5  7
4  2  4  9  2  8
5  2  4  8  10  2
