LAMMPS data file Created by LigParGen - (Written by Leela S. Dodda)

      38 atoms
      37 bonds
      70 angles
      98 dihedrals
      23 impropers
 
      38 atom types
      37 bond types
      70 angle types
      98 dihedral types
      23 improper types
 
  -11.620400    38.379600 xlo xhi
    0.111340    50.111340 ylo yhi
   -1.026060    48.973940 zlo zhi

Masses

       1     12.011  
       2     12.011  
       3     12.011  
       4     12.011  
       5     12.011  
       6     12.011  
       7     12.011  
       8     12.011  
       9     12.011  
      10     12.011  
      11     12.011  
      12     12.011  
      13     15.999  
      14     15.999  
      15      1.008  
      16      1.008  
      17      1.008  
      18      1.008  
      19      1.008  
      20      1.008  
      21      1.008  
      22      1.008  
      23      1.008  
      24      1.008  
      25      1.008  
      26      1.008  
      27      1.008  
      28      1.008  
      29      1.008  
      30      1.008  
      31      1.008  
      32      1.008  
      33      1.008  
      34      1.008  
      35      1.008  
      36      1.008  
      37      1.008  
      38      1.008  

Pair Coeffs 

       1      0.066  3.5000000 
       2      0.066  3.5000000 
       3      0.066  3.5000000 
       4      0.066  3.5000000 
       5      0.066  3.5000000 
       6      0.066  3.5000000 
       7      0.066  3.5000000 
       8      0.066  3.5000000 
       9      0.066  3.5000000 
      10      0.066  3.5000000 
      11      0.066  3.5000000 
      12      0.070  3.5500000 
      13      0.210  2.9600000 
      14      0.170  3.1200000 
      15      0.030  2.5000000 
      16      0.030  2.5000000 
      17      0.030  2.5000000 
      18      0.030  2.5000000 
      19      0.030  2.5000000 
      20      0.030  2.5000000 
      21      0.030  2.5000000 
      22      0.030  2.5000000 
      23      0.030  2.5000000 
      24      0.030  2.5000000 
      25      0.030  2.5000000 
      26      0.030  2.5000000 
      27      0.030  2.5000000 
      28      0.030  2.5000000 
      29      0.030  2.5000000 
      30      0.030  2.5000000 
      31      0.030  2.5000000 
      32      0.030  2.5000000 
      33      0.030  2.5000000 
      34      0.030  2.5000000 
      35      0.030  2.5000000 
      36      0.030  2.5000000 
      37      0.030  2.5000000 
      38      0.000  0.0000000 

Bond Coeffs 

       1   268.0000     1.5290 
       2   268.0000     1.5290 
       3   268.0000     1.5290 
       4   268.0000     1.5290 
       5   268.0000     1.5290 
       6   268.0000     1.5290 
       7   268.0000     1.5290 
       8   268.0000     1.5290 
       9   268.0000     1.5290 
      10   268.0000     1.5290 
      11   317.0000     1.5220 
      12   570.0000     1.2290 
      13   450.0000     1.3640 
      14   340.0000     1.0900 
      15   340.0000     1.0900 
      16   340.0000     1.0900 
      17   340.0000     1.0900 
      18   340.0000     1.0900 
      19   340.0000     1.0900 
      20   340.0000     1.0900 
      21   340.0000     1.0900 
      22   340.0000     1.0900 
      23   340.0000     1.0900 
      24   340.0000     1.0900 
      25   340.0000     1.0900 
      26   340.0000     1.0900 
      27   340.0000     1.0900 
      28   340.0000     1.0900 
      29   340.0000     1.0900 
      30   340.0000     1.0900 
      31   340.0000     1.0900 
      32   340.0000     1.0900 
      33   340.0000     1.0900 
      34   340.0000     1.0900 
      35   340.0000     1.0900 
      36   340.0000     1.0900 
      37   553.0000     0.9450 

Angle Coeffs 

       1     58.350    112.700
       2     58.350    112.700
       3     58.350    112.700
       4     58.350    112.700
       5     58.350    112.700
       6     58.350    112.700
       7     58.350    112.700
       8     58.350    112.700
       9     58.350    112.700
      10     63.000    111.100
      11     80.000    120.400
      12     70.000    108.000
      13     37.500    110.700
      14     37.500    110.700
      15     37.500    110.700
      16     37.500    110.700
      17     37.500    110.700
      18     37.500    110.700
      19     37.500    110.700
      20     37.500    110.700
      21     37.500    110.700
      22     37.500    110.700
      23     37.500    110.700
      24     37.500    110.700
      25     37.500    110.700
      26     37.500    110.700
      27     37.500    110.700
      28     37.500    110.700
      29     37.500    110.700
      30     37.500    110.700
      31     37.500    110.700
      32     37.500    110.700
      33     37.500    110.700
      34     37.500    110.700
      35     37.500    110.700
      36     35.000    113.000
      37     37.500    110.700
      38     33.000    107.800
      39     37.500    110.700
      40     80.000    121.000
      41     35.000    109.500
      42     37.500    110.700
      43     37.500    110.700
      44     37.500    110.700
      45     35.000    109.500
      46     33.000    107.800
      47     33.000    107.800
      48     33.000    107.800
      49     37.500    110.700
      50     37.500    110.700
      51     33.000    107.800
      52     37.500    110.700
      53     37.500    110.700
      54     37.500    110.700
      55     37.500    110.700
      56     33.000    107.800
      57     33.000    107.800
      58     37.500    110.700
      59     33.000    107.800
      60     37.500    110.700
      61     33.000    107.800
      62     33.000    107.800
      63     37.500    110.700
      64     33.000    107.800
      65     37.500    110.700
      66     33.000    107.800
      67     37.500    110.700
      68     37.500    110.700
      69     37.500    110.700
      70     33.000    107.800

Dihedral Coeffs  

       1      1.300     -0.200      0.200      0.000 
       2      1.300     -0.200      0.200      0.000 
       3      1.300     -0.200      0.200      0.000 
       4      1.300     -0.200      0.200      0.000 
       5      1.300     -0.200      0.200      0.000 
       6      1.300     -0.200      0.200      0.000 
       7      1.300     -0.200      0.200      0.000 
       8      1.300     -0.200      0.200      0.000 
       9     -2.060     -0.313      0.315      0.000 
      10      0.000      0.000      0.000      0.000 
      11      0.000      0.000      0.300      0.000 
      12      1.500      5.500      0.000      0.000 
      13      0.000      0.000      0.300      0.000 
      14      0.000      0.000      0.300      0.000 
      15      0.000      0.000     -0.100      0.000 
      16      0.000      0.000      0.300      0.000 
      17      1.000      0.546      0.450      0.000 
      18      0.000      0.000      0.300      0.000 
      19      0.000      0.000      0.000      0.000 
      20      0.000      0.000      0.300      0.000 
      21      0.000      0.000      0.300      0.000 
      22      0.000      0.000      0.300      0.000 
      23      0.000      0.000      0.300      0.000 
      24      0.000      0.000      0.300      0.000 
      25      0.000      0.000      0.300      0.000 
      26      0.000      0.000      0.300      0.000 
      27      0.000      0.000      0.300      0.000 
      28      0.000      0.000     -0.100      0.000 
      29      0.000      0.000      0.300      0.000 
      30      0.000      0.000      0.300      0.000 
      31      0.000      0.000      0.300      0.000 
      32      0.000      0.000      0.300      0.000 
      33      0.000      0.000      0.300      0.000 
      34      0.000      0.000      0.300      0.000 
      35      0.000      0.000      0.300      0.000 
      36      0.000      0.000      0.300      0.000 
      37      0.000      0.000      0.300      0.000 
      38      0.000      0.000      0.300      0.000 
      39      0.000      5.500      0.000      0.000 
      40      0.000      0.000      0.300      0.000 
      41      0.000      0.000      0.300      0.000 
      42      0.000      0.000      0.300      0.000 
      43      0.000      0.000      0.300      0.000 
      44      0.000      0.000      0.300      0.000 
      45      0.000      0.000      0.300      0.000 
      46      0.000      0.000      0.300      0.000 
      47      0.000      0.000      0.300      0.000 
      48      0.000      0.000      0.300      0.000 
      49      0.000      0.000      0.000      0.000 
      50      0.000      0.000      0.000      0.000 
      51      0.000      0.000      0.300      0.000 
      52      0.000      0.000      0.300      0.000 
      53      0.000      0.000      0.300      0.000 
      54      0.000      0.000      0.300      0.000 
      55      0.000      0.000      0.300      0.000 
      56      0.000      0.000      0.300      0.000 
      57      0.000      0.000      0.300      0.000 
      58      0.000      0.000      0.000      0.000 
      59      0.000      0.000      0.300      0.000 
      60      0.000      0.000      0.300      0.000 
      61      0.000      0.000      0.300      0.000 
      62      0.000      0.000      0.300      0.000 
      63      0.000      0.000      0.300      0.000 
      64      0.000      0.000      0.300      0.000 
      65      0.000      0.000      0.300      0.000 
      66      0.000      0.000      0.300      0.000 
      67      0.000      0.000      0.300      0.000 
      68      0.000      0.000      0.300      0.000 
      69      0.000      0.000      0.300      0.000 
      70      0.000      0.000      0.300      0.000 
      71      0.000      0.000      0.300      0.000 
      72      0.000      0.000      0.300      0.000 
      73      0.000      0.000      0.300      0.000 
      74      0.000      0.000      0.300      0.000 
      75      0.000      0.000      0.300      0.000 
      76      0.000      0.000      0.300      0.000 
      77      0.000      0.000      0.300      0.000 
      78      0.000      0.000      0.300      0.000 
      79      0.000      0.000      0.300      0.000 
      80      0.000      0.000      0.300      0.000 
      81      0.000      0.000      0.300      0.000 
      82      0.000      0.000      0.300      0.000 
      83      0.000      0.000      0.300      0.000 
      84      0.000      0.000      0.300      0.000 
      85      0.000      0.000      0.300      0.000 
      86      0.000      0.000      0.300      0.000 
      87      0.000      0.000      0.300      0.000 
      88      0.000      0.000      0.300      0.000 
      89      0.000      0.000      0.300      0.000 
      90      0.000      0.000      0.300      0.000 
      91      0.000      0.000      0.300      0.000 
      92      0.000      0.000      0.300      0.000 
      93      0.000      0.000      0.300      0.000 
      94      0.000      0.000      0.300      0.000 
      95      0.000      0.000      0.300      0.000 
      96      0.000      0.000      0.300      0.000 
      97      0.000      0.000      0.300      0.000 
      98      0.000      0.000      0.300      0.000 

Improper Coeffs 

       1     10.500      -1       2 
       2      0.000      -1       2 
       3      0.000      -1       2 
       4      0.000      -1       2 
       5      0.000      -1       2 
       6      0.000      -1       2 
       7      0.000      -1       2 
       8      0.000      -1       2 
       9      0.000      -1       2 
      10      0.000      -1       2 
      11      0.000      -1       2 
      12      0.000      -1       2 
      13      0.000      -1       2 
      14      0.000      -1       2 
      15      0.000      -1       2 
      16      0.000      -1       2 
      17      0.000      -1       2 
      18      0.000      -1       2 
      19      0.000      -1       2 
      20      0.000      -1       2 
      21      0.000      -1       2 
      22      0.000      -1       2 
      23      0.000      -1       2 

Atoms 

     1      1      1 -0.23890000    1.000  1.00000  0.00000
     2      1      2 -0.17940000   -0.521  1.00000  0.00000
     3      1      3 -0.17840000   -1.074  1.00000  1.42374
     4      1      4 -0.17910000   -2.602  1.00180  1.42703
     5      1      5 -0.17890000   -3.147  1.00359  2.85532
     6      1      6 -0.17900000   -4.675  1.00359  2.86516
     7      1      7 -0.17850000   -5.218  1.00719  4.29438
     8      1      8 -0.17850000   -6.746  1.00537  4.29767
     9      1      9 -0.17960000   -7.304  1.01073  5.72094
    10      1     10 -0.17080000   -8.833  1.01062  5.70129
    11      1     11 -0.26030000   -9.415  1.01414  7.11267
    12      1     12 0.50970000  -10.926  1.01225  7.08999
    13      1     13 -0.44430000  -11.620  1.00841  6.08669
    14      1     14 -0.56030000  -11.456  1.01692  8.33619
    15      1     15 0.08090000    1.379  1.00130 -1.02606
    16      1     16 0.08090000    1.390  0.11134  0.50650
    17      1     17 0.08090000    1.390  1.88744  0.50878
    18      1     18 0.08860000   -0.880  0.11701 -0.54078
    19      1     19 0.08860000   -0.880  1.88306 -0.54082
    20      1     20 0.08920000   -0.704  1.88211  1.96071
    21      1     21 0.08920000   -0.706  0.11643  1.95996
    22      1     22 0.09000000   -2.972  0.11864  0.89191
    23      1     23 0.09000000   -2.970  1.88554  0.89155
    24      1     24 0.08920000   -2.776  1.88766  3.38801
    25      1     25 0.08920000   -2.776  0.12084  3.39025
    26      1     26 0.09090000   -5.045  0.11868  2.33289
    27      1     27 0.09090000   -5.045  1.88559  2.32857
    28      1     28 0.08920000   -4.849  1.89282  4.82569
    29      1     29 0.08920000   -4.848  0.12583  4.83197
    30      1     30 0.09370000   -7.112  0.11943  3.76412
    31      1     31 0.09370000   -7.114  1.88586  3.75666
    32      1     32 0.08820000   -6.942  1.89678  6.25612
    33      1     33 0.08820000   -6.941  0.12946  6.26312
    34      1     34 0.11090000   -9.192  0.12856  5.15662
    35      1     35 0.11090000   -9.192  1.88982  5.15226
    36      1     36 0.12120000   -9.080  1.90977  7.64789
    37      1     37 0.12120000   -9.078  0.12254  7.65323
    38      1     38 0.45110000  -10.787  1.02073  9.04582

Bonds 

     1      1      2      1
     2      2      3      2
     3      3      4      3
     4      4      5      4
     5      5      6      5
     6      6      7      6
     7      7      8      7
     8      8      9      8
     9      9     10      9
    10     10     11     10
    11     11     12     11
    12     12     13     12
    13     13     14     12
    14     14     15      1
    15     15     16      1
    16     16     17      1
    17     17     18      2
    18     18     19      2
    19     19     20      3
    20     20     21      3
    21     21     22      4
    22     22     23      4
    23     23     24      5
    24     24     25      5
    25     25     26      6
    26     26     27      6
    27     27     28      7
    28     28     29      7
    29     29     30      8
    30     30     31      8
    31     31     32      9
    32     32     33      9
    33     33     34     10
    34     34     35     10
    35     35     36     11
    36     36     37     11
    37     37     38     14

Angles 

     1      1      1      2      3
     2      2      2      3      4
     3      3      3      4      5
     4      4      4      5      6
     5      5      5      6      7
     6      6      6      7      8
     7      7      7      8      9
     8      8      8      9     10
     9      9      9     10     11
    10     10     10     11     12
    11     11     11     12     13
    12     12     11     12     14
    13     13      2      1     15
    14     14      2      1     16
    15     15      2      1     17
    16     16      1      2     18
    17     17      1      2     19
    18     18      2      3     20
    19     19      2      3     21
    20     20      3      4     22
    21     21      3      4     23
    22     22      4      5     24
    23     23      4      5     25
    24     24      5      6     26
    25     25      5      6     27
    26     26      6      7     28
    27     27      6      7     29
    28     28      7      8     30
    29     29      7      8     31
    30     30      8      9     32
    31     31      8      9     33
    32     32      9     10     34
    33     33      9     10     35
    34     34     10     11     36
    35     35     10     11     37
    36     36     12     14     38
    37     37      9      8     30
    38     38     24      5     25
    39     39      6      5     24
    40     40     13     12     14
    41     41     12     11     37
    42     42      3      2     18
    43     43      7      6     27
    44     44     11     10     34
    45     45     12     11     36
    46     46     18      2     19
    47     47     16      1     17
    48     48     15      1     16
    49     49      5      4     23
    50     50      7      6     26
    51     51     26      6     27
    52     52      8      7     29
    53     53      8      7     28
    54     54     11     10     35
    55     55      5      4     22
    56     56     28      7     29
    57     57     34     10     35
    58     58      3      2     19
    59     59     36     11     37
    60     60      4      3     21
    61     61     22      4     23
    62     62     15      1     17
    63     63     10      9     33
    64     64     30      8     31
    65     65      6      5     25
    66     66     32      9     33
    67     67      9      8     31
    68     68      4      3     20
    69     69     10      9     32
    70     70     20      3     21

Dihedrals

     1      1      4      3      2      1 
     2      2      5      4      3      2 
     3      3      6      5      4      3 
     4      4      7      6      5      4 
     5      5      8      7      6      5 
     6      6      9      8      7      6 
     7      7     10      9      8      7 
     8      8     11     10      9      8 
     9      9     12     11     10      9 
    10     10     13     12     11     10 
    11     11     15      1      2      3 
    12     12     38     14     12     11 
    13     13     23      4      3     21 
    14     14     31      8      7     29 
    15     15     35     10     11     12 
    16     16     35     10      9      8 
    17     17     14     12     11     10 
    18     18     28      7      8      9 
    19     19     36     11     12     13 
    20     20     25      5      4      3 
    21     21     31      8      7      6 
    22     22     28      7      6     26 
    23     23     32      9     10     11 
    24     24     37     11     10     35 
    25     25     25      5      4     23 
    26     26     20      3      2     19 
    27     27     21      3      2     18 
    28     28     34     10     11     12 
    29     29     25      5      6      7 
    30     30     37     11     10      9 
    31     31     29      7      8      9 
    32     32     33      9      8      7 
    33     33     30      8      9     10 
    34     34     27      6      5     24 
    35     35     28      7      6      5 
    36     36     34     10      9     32 
    37     37     30      8      7     28 
    38     38     18      2      1     15 
    39     39     38     14     12     13 
    40     40     29      7      6     26 
    41     41     28      7      6     27 
    42     42     30      8      7      6 
    43     43     26      6      5      4 
    44     44     23      4      5      6 
    45     45     35     10      9     33 
    46     46     20      3      2      1 
    47     47     20      3      2     18 
    48     48     22      4      3     20 
    49     49     36     11     12     14 
    50     50     37     11     12     13 
    51     51     27      6      5     25 
    52     52     19      2      1     16 
    53     53     35     10      9     32 
    54     54     34     10      9     33 
    55     55     24      5      4     23 
    56     56     25      5      4     22 
    57     57     22      4      3      2 
    58     58     37     11     12     14 
    59     59     20      3      4      5 
    60     60     32      9      8     30 
    61     61     24      5      6      7 
    62     62     27      6      5      4 
    63     63     23      4      3      2 
    64     64     18      2      1     17 
    65     65     34     10      9      8 
    66     66     26      6      5     24 
    67     67     21      3      2     19 
    68     68     21      3      4      5 
    69     69     31      8      9     10 
    70     70     33      9     10     11 
    71     71     24      5      4      3 
    72     72     37     11     10     34 
    73     73     36     11     10     35 
    74     74     32      9      8      7 
    75     75     27      6      7      8 
    76     76     17      1      2      3 
    77     77     31      8      7     28 
    78     78     30      8      7     29 
    79     79     24      5      4     22 
    80     80     19      2      3      4 
    81     81     29      7      6     27 
    82     82     26      6      7      8 
    83     83     29      7      6      5 
    84     84     36     11     10     34 
    85     85     32      9      8     31 
    86     86     33      9      8     30 
    87     87     23      4      3     20 
    88     88     22      4      3     21 
    89     89     36     11     10      9 
    90     90     18      2      3      4 
    91     91     19      2      1     17 
    92     92     21      3      2      1 
    93     93     22      4      5      6 
    94     94     33      9      8     31 
    95     95     16      1      2      3 
    96     96     26      6      5     25 
    97     97     18      2      1     16 
    98     98     19      2      1     15 

Impropers

     1      1     12     11     13     14 
     2      2      1      2     15     16 
     3      3      1     17     15      2 
     4      4      2      1     18      3 
     5      5      2      1     19      3 
     6      6      3      4      2     20 
     7      7      3      2      4     21 
     8      8      4      3      5     22 
     9      9      4      3      5     23 
    10     10      5      4      6     24 
    11     11      5     25      4      6 
    12     12      6     26      5      7 
    13     13      6     27      5      7 
    14     14      7     28      6      8 
    15     15      7     29      6      8 
    16     16      8      9     30      7 
    17     17      8      9      7     31 
    18     18      9     10      8     32 
    19     19      9     33     10      8 
    20     20     10      9     34     11 
    21     21     10      9     35     11 
    22     22     11     12     10     36 
    23     23     11     10     12     37 

