LAMMPS data file Created by LigParGen - (Written by Leela S. Dodda)

      37 atoms
      36 bonds
      69 angles
      96 dihedrals
      23 impropers
 
      37 atom types
      36 bond types
      69 angle types
      96 dihedral types
      23 improper types
 
  -11.565610    38.434390 xlo xhi
    0.107410    50.107410 ylo yhi
   -1.026510    48.973490 zlo zhi

Masses

       1     12.011  
       2     12.011  
       3     12.011  
       4     12.011  
       5     12.011  
       6     12.011  
       7     12.011  
       8     12.011  
       9     12.011  
      10     12.011  
      11     12.011  
      12     12.011  
      13     15.999  
      14     15.999  
      15      1.008  
      16      1.008  
      17      1.008  
      18      1.008  
      19      1.008  
      20      1.008  
      21      1.008  
      22      1.008  
      23      1.008  
      24      1.008  
      25      1.008  
      26      1.008  
      27      1.008  
      28      1.008  
      29      1.008  
      30      1.008  
      31      1.008  
      32      1.008  
      33      1.008  
      34      1.008  
      35      1.008  
      36      1.008  
      37      1.008  

Pair Coeffs 

       1      0.066  3.5000000 
       2      0.066  3.5000000 
       3      0.066  3.5000000 
       4      0.066  3.5000000 
       5      0.066  3.5000000 
       6      0.066  3.5000000 
       7      0.066  3.5000000 
       8      0.066  3.5000000 
       9      0.066  3.5000000 
      10      0.066  3.5000000 
      11      0.066  3.5000000 
      12      0.070  3.5500000 
      13      0.210  2.9600000 
      14      0.210  2.9600000 
      15      0.030  2.5000000 
      16      0.030  2.5000000 
      17      0.030  2.5000000 
      18      0.030  2.5000000 
      19      0.030  2.5000000 
      20      0.030  2.5000000 
      21      0.030  2.5000000 
      22      0.030  2.5000000 
      23      0.030  2.5000000 
      24      0.030  2.5000000 
      25      0.030  2.5000000 
      26      0.030  2.5000000 
      27      0.030  2.5000000 
      28      0.030  2.5000000 
      29      0.030  2.5000000 
      30      0.030  2.5000000 
      31      0.030  2.5000000 
      32      0.030  2.5000000 
      33      0.030  2.5000000 
      34      0.030  2.5000000 
      35      0.030  2.5000000 
      36      0.030  2.5000000 
      37      0.030  2.5000000 

Bond Coeffs 

       1   268.0000     1.5290 
       2   268.0000     1.5290 
       3   268.0000     1.5290 
       4   268.0000     1.5290 
       5   268.0000     1.5290 
       6   268.0000     1.5290 
       7   268.0000     1.5290 
       8   268.0000     1.5290 
       9   268.0000     1.5290 
      10   268.0000     1.5290 
      11   317.0000     1.5220 
      12   656.0000     1.2500 
      13   656.0000     1.2500 
      14   340.0000     1.0900 
      15   340.0000     1.0900 
      16   340.0000     1.0900 
      17   340.0000     1.0900 
      18   340.0000     1.0900 
      19   340.0000     1.0900 
      20   340.0000     1.0900 
      21   340.0000     1.0900 
      22   340.0000     1.0900 
      23   340.0000     1.0900 
      24   340.0000     1.0900 
      25   340.0000     1.0900 
      26   340.0000     1.0900 
      27   340.0000     1.0900 
      28   340.0000     1.0900 
      29   340.0000     1.0900 
      30   340.0000     1.0900 
      31   340.0000     1.0900 
      32   340.0000     1.0900 
      33   340.0000     1.0900 
      34   340.0000     1.0900 
      35   340.0000     1.0900 
      36   340.0000     1.0900 

Angle Coeffs 

       1     58.350    112.700
       2     58.350    112.700
       3     58.350    112.700
       4     58.350    112.700
       5     58.350    112.700
       6     58.350    112.700
       7     58.350    112.700
       8     58.350    112.700
       9     58.350    112.700
      10     63.000    111.100
      11     70.000    117.000
      12     70.000    117.000
      13     37.500    110.700
      14     37.500    110.700
      15     37.500    110.700
      16     37.500    110.700
      17     37.500    110.700
      18     37.500    110.700
      19     37.500    110.700
      20     37.500    110.700
      21     37.500    110.700
      22     37.500    110.700
      23     37.500    110.700
      24     37.500    110.700
      25     37.500    110.700
      26     37.500    110.700
      27     37.500    110.700
      28     37.500    110.700
      29     37.500    110.700
      30     37.500    110.700
      31     37.500    110.700
      32     37.500    110.700
      33     37.500    110.700
      34     37.500    110.700
      35     37.500    110.700
      36     37.500    110.700
      37     33.000    107.800
      38     37.500    110.700
      39     80.000    126.000
      40     35.000    109.500
      41     37.500    110.700
      42     37.500    110.700
      43     37.500    110.700
      44     35.000    109.500
      45     33.000    107.800
      46     33.000    107.800
      47     33.000    107.800
      48     37.500    110.700
      49     37.500    110.700
      50     33.000    107.800
      51     37.500    110.700
      52     37.500    110.700
      53     37.500    110.700
      54     37.500    110.700
      55     33.000    107.800
      56     33.000    107.800
      57     37.500    110.700
      58     33.000    107.800
      59     37.500    110.700
      60     33.000    107.800
      61     33.000    107.800
      62     37.500    110.700
      63     33.000    107.800
      64     37.500    110.700
      65     33.000    107.800
      66     37.500    110.700
      67     37.500    110.700
      68     37.500    110.700
      69     33.000    107.800

Dihedral Coeffs  

       1      1.300     -0.200      0.200      0.000 
       2      1.300     -0.200      0.200      0.000 
       3      1.300     -0.200      0.200      0.000 
       4      1.300     -0.200      0.200      0.000 
       5      1.300     -0.200      0.200      0.000 
       6      1.300     -0.200      0.200      0.000 
       7      1.300     -0.200      0.200      0.000 
       8      1.300     -0.200      0.200      0.000 
       9     -2.060     -0.313      0.315      0.000 
      10      0.000      0.000      0.000      0.000 
      11      0.000      0.000      0.300      0.000 
      12      0.000      0.000      0.300      0.000 
      13      0.000      0.000      0.300      0.000 
      14      0.000      0.000     -0.100      0.000 
      15      0.000      0.000      0.300      0.000 
      16      0.000      0.000      0.000      0.000 
      17      0.000      0.000      0.300      0.000 
      18      0.000      0.000      0.000      0.000 
      19      0.000      0.000      0.300      0.000 
      20      0.000      0.000      0.300      0.000 
      21      0.000      0.000      0.300      0.000 
      22      0.000      0.000      0.300      0.000 
      23      0.000      0.000      0.300      0.000 
      24      0.000      0.000      0.300      0.000 
      25      0.000      0.000      0.300      0.000 
      26      0.000      0.000      0.300      0.000 
      27      0.000      0.000     -0.100      0.000 
      28      0.000      0.000      0.300      0.000 
      29      0.000      0.000      0.300      0.000 
      30      0.000      0.000      0.300      0.000 
      31      0.000      0.000      0.300      0.000 
      32      0.000      0.000      0.300      0.000 
      33      0.000      0.000      0.300      0.000 
      34      0.000      0.000      0.300      0.000 
      35      0.000      0.000      0.300      0.000 
      36      0.000      0.000      0.300      0.000 
      37      0.000      0.000      0.300      0.000 
      38      0.000      0.000      0.300      0.000 
      39      0.000      0.000      0.300      0.000 
      40      0.000      0.000      0.300      0.000 
      41      0.000      0.000      0.300      0.000 
      42      0.000      0.000      0.300      0.000 
      43      0.000      0.000      0.300      0.000 
      44      0.000      0.000      0.300      0.000 
      45      0.000      0.000      0.300      0.000 
      46      0.000      0.000      0.300      0.000 
      47      0.000      0.000      0.000      0.000 
      48      0.000      0.000      0.000      0.000 
      49      0.000      0.000      0.300      0.000 
      50      0.000      0.000      0.300      0.000 
      51      0.000      0.000      0.300      0.000 
      52      0.000      0.000      0.300      0.000 
      53      0.000      0.000      0.300      0.000 
      54      0.000      0.000      0.300      0.000 
      55      0.000      0.000      0.300      0.000 
      56      0.000      0.000      0.000      0.000 
      57      0.000      0.000      0.300      0.000 
      58      0.000      0.000      0.300      0.000 
      59      0.000      0.000      0.300      0.000 
      60      0.000      0.000      0.300      0.000 
      61      0.000      0.000      0.300      0.000 
      62      0.000      0.000      0.300      0.000 
      63      0.000      0.000      0.300      0.000 
      64      0.000      0.000      0.300      0.000 
      65      0.000      0.000      0.300      0.000 
      66      0.000      0.000      0.300      0.000 
      67      0.000      0.000      0.300      0.000 
      68      0.000      0.000      0.300      0.000 
      69      0.000      0.000      0.300      0.000 
      70      0.000      0.000      0.300      0.000 
      71      0.000      0.000      0.300      0.000 
      72      0.000      0.000      0.300      0.000 
      73      0.000      0.000      0.300      0.000 
      74      0.000      0.000      0.300      0.000 
      75      0.000      0.000      0.300      0.000 
      76      0.000      0.000      0.300      0.000 
      77      0.000      0.000      0.300      0.000 
      78      0.000      0.000      0.300      0.000 
      79      0.000      0.000      0.300      0.000 
      80      0.000      0.000      0.300      0.000 
      81      0.000      0.000      0.300      0.000 
      82      0.000      0.000      0.300      0.000 
      83      0.000      0.000      0.300      0.000 
      84      0.000      0.000      0.300      0.000 
      85      0.000      0.000      0.300      0.000 
      86      0.000      0.000      0.300      0.000 
      87      0.000      0.000      0.300      0.000 
      88      0.000      0.000      0.300      0.000 
      89      0.000      0.000      0.300      0.000 
      90      0.000      0.000      0.300      0.000 
      91      0.000      0.000      0.300      0.000 
      92      0.000      0.000      0.300      0.000 
      93      0.000      0.000      0.300      0.000 
      94      0.000      0.000      0.300      0.000 
      95      0.000      0.000      0.300      0.000 
      96      0.000      0.000      0.300      0.000 

Improper Coeffs 

       1     10.500      -1       2 
       2      0.000      -1       2 
       3      0.000      -1       2 
       4      0.000      -1       2 
       5      0.000      -1       2 
       6      0.000      -1       2 
       7      0.000      -1       2 
       8      0.000      -1       2 
       9      0.000      -1       2 
      10      0.000      -1       2 
      11      0.000      -1       2 
      12      0.000      -1       2 
      13      0.000      -1       2 
      14      0.000      -1       2 
      15      0.000      -1       2 
      16      0.000      -1       2 
      17      0.000      -1       2 
      18      0.000      -1       2 
      19      0.000      -1       2 
      20      0.000      -1       2 
      21      0.000      -1       2 
      22      0.000      -1       2 
      23      0.000      -1       2 

Atoms 

     1      1      1 -0.20880000    1.000  1.00000  0.00000
     2      1      2 -0.15780000   -0.520  1.00000  0.00000
     3      1      3 -0.15670000   -1.073  1.00000  1.42388
     4      1      4 -0.15760000   -2.602  0.99820  1.42552
     5      1      5 -0.15720000   -3.148  1.00001  2.85308
     6      1      6 -0.15780000   -4.675  0.99642  2.85799
     7      1      7 -0.15770000   -5.223  1.00003  4.28493
     8      1      8 -0.15720000   -6.751  0.99460  4.28167
     9      1      9 -0.16110000   -7.312  0.99994  5.70321
    10      1     10 -0.13590000   -8.841  0.99623  5.68355
    11      1     11 -0.23270000   -9.419  0.99969  7.09391
    12      1     12 0.42810000  -10.949  0.99804  7.16253
    13      1     13 -0.63120000  -11.566  0.99404  6.06186
    14      1     14 -0.63120000  -11.411  0.99949  8.34072
    15      1     15 0.06800000    1.379  1.00130 -1.02651
    16      1     16 0.06800000    1.391  0.11158  0.50635
    17      1     17 0.06800000    1.391  1.88706  0.50856
    18      1     18 0.07660000   -0.880  0.11697 -0.54080
    19      1     19 0.07660000   -0.880  1.88362 -0.53974
    20      1     20 0.07710000   -0.707  1.88398  1.95959
    21      1     21 0.07710000   -0.705  0.11728  1.96046
    22      1     22 0.07720000   -2.969  0.11369  0.89082
    23      1     23 0.07720000   -2.971  1.88001  0.88777
    24      1     24 0.07590000   -2.780  1.88544  3.38535
    25      1     25 0.07590000   -2.776  0.11900  3.39013
    26      1     26 0.07660000   -5.042  0.11025  2.32541
    27      1     27 0.07660000   -5.047  1.87684  2.31954
    28      1     28 0.07340000   -4.858  1.88709  4.81666
    29      1     29 0.07340000   -4.852  0.11974  4.82354
    30      1     30 0.07540000   -7.112  0.10741  3.74742
    31      1     31 0.07540000   -7.118  1.87372  3.73829
    32      1     32 0.06510000   -6.951  1.88701  6.23776
    33      1     33 0.06510000   -6.947  0.11960  6.24608
    34      1     34 0.07930000   -9.196  0.11175  5.14048
    35      1     35 0.07930000   -9.200  1.87528  5.13444
    36      1     36 0.05880000   -9.061  1.88575  7.63334
    37      1     37 0.05880000   -9.059  0.11772  7.63853

Bonds 

     1      1      2      1
     2      2      3      2
     3      3      4      3
     4      4      5      4
     5      5      6      5
     6      6      7      6
     7      7      8      7
     8      8      9      8
     9      9     10      9
    10     10     11     10
    11     11     12     11
    12     12     13     12
    13     13     14     12
    14     14     15      1
    15     15     16      1
    16     16     17      1
    17     17     18      2
    18     18     19      2
    19     19     20      3
    20     20     21      3
    21     21     22      4
    22     22     23      4
    23     23     24      5
    24     24     25      5
    25     25     26      6
    26     26     27      6
    27     27     28      7
    28     28     29      7
    29     29     30      8
    30     30     31      8
    31     31     32      9
    32     32     33      9
    33     33     34     10
    34     34     35     10
    35     35     36     11
    36     36     37     11

Angles 

     1      1      1      2      3
     2      2      2      3      4
     3      3      3      4      5
     4      4      4      5      6
     5      5      5      6      7
     6      6      6      7      8
     7      7      7      8      9
     8      8      8      9     10
     9      9      9     10     11
    10     10     10     11     12
    11     11     11     12     13
    12     12     11     12     14
    13     13      2      1     15
    14     14      2      1     16
    15     15      2      1     17
    16     16      1      2     18
    17     17      1      2     19
    18     18      2      3     20
    19     19      2      3     21
    20     20      3      4     22
    21     21      3      4     23
    22     22      4      5     24
    23     23      4      5     25
    24     24      5      6     26
    25     25      5      6     27
    26     26      6      7     28
    27     27      6      7     29
    28     28      7      8     30
    29     29      7      8     31
    30     30      8      9     32
    31     31      8      9     33
    32     32      9     10     34
    33     33      9     10     35
    34     34     10     11     36
    35     35     10     11     37
    36     36      9      8     30
    37     37     24      5     25
    38     38      6      5     24
    39     39     13     12     14
    40     40     12     11     37
    41     41      3      2     18
    42     42      7      6     27
    43     43     11     10     34
    44     44     12     11     36
    45     45     18      2     19
    46     46     16      1     17
    47     47     15      1     16
    48     48      5      4     23
    49     49      7      6     26
    50     50     26      6     27
    51     51      8      7     29
    52     52      8      7     28
    53     53     11     10     35
    54     54      5      4     22
    55     55     28      7     29
    56     56     34     10     35
    57     57      3      2     19
    58     58     36     11     37
    59     59      4      3     21
    60     60     22      4     23
    61     61     15      1     17
    62     62     10      9     33
    63     63     30      8     31
    64     64      6      5     25
    65     65     32      9     33
    66     66      9      8     31
    67     67      4      3     20
    68     68     10      9     32
    69     69     20      3     21

Dihedrals

     1      1      4      3      2      1 
     2      2      5      4      3      2 
     3      3      6      5      4      3 
     4      4      7      6      5      4 
     5      5      8      7      6      5 
     6      6      9      8      7      6 
     7      7     10      9      8      7 
     8      8     11     10      9      8 
     9      9     12     11     10      9 
    10     10     13     12     11     10 
    11     11     15      1      2      3 
    12     12     23      4      3     21 
    13     13     31      8      7     29 
    14     14     35     10     11     12 
    15     15     35     10      9      8 
    16     16     14     12     11     10 
    17     17     28      7      8      9 
    18     18     36     11     12     13 
    19     19     25      5      4      3 
    20     20     31      8      7      6 
    21     21     28      7      6     26 
    22     22     32      9     10     11 
    23     23     37     11     10     35 
    24     24     25      5      4     23 
    25     25     20      3      2     19 
    26     26     21      3      2     18 
    27     27     34     10     11     12 
    28     28     25      5      6      7 
    29     29     37     11     10      9 
    30     30     29      7      8      9 
    31     31     33      9      8      7 
    32     32     30      8      9     10 
    33     33     27      6      5     24 
    34     34     28      7      6      5 
    35     35     34     10      9     32 
    36     36     30      8      7     28 
    37     37     18      2      1     15 
    38     38     29      7      6     26 
    39     39     28      7      6     27 
    40     40     30      8      7      6 
    41     41     26      6      5      4 
    42     42     23      4      5      6 
    43     43     35     10      9     33 
    44     44     20      3      2      1 
    45     45     20      3      2     18 
    46     46     22      4      3     20 
    47     47     36     11     12     14 
    48     48     37     11     12     13 
    49     49     27      6      5     25 
    50     50     19      2      1     16 
    51     51     35     10      9     32 
    52     52     34     10      9     33 
    53     53     24      5      4     23 
    54     54     25      5      4     22 
    55     55     22      4      3      2 
    56     56     37     11     12     14 
    57     57     20      3      4      5 
    58     58     32      9      8     30 
    59     59     24      5      6      7 
    60     60     27      6      5      4 
    61     61     23      4      3      2 
    62     62     18      2      1     17 
    63     63     34     10      9      8 
    64     64     26      6      5     24 
    65     65     21      3      2     19 
    66     66     21      3      4      5 
    67     67     31      8      9     10 
    68     68     33      9     10     11 
    69     69     24      5      4      3 
    70     70     37     11     10     34 
    71     71     36     11     10     35 
    72     72     32      9      8      7 
    73     73     27      6      7      8 
    74     74     17      1      2      3 
    75     75     31      8      7     28 
    76     76     30      8      7     29 
    77     77     24      5      4     22 
    78     78     19      2      3      4 
    79     79     26      6      7      8 
    80     80     29      7      6      5 
    81     81     36     11     10     34 
    82     82     32      9      8     31 
    83     83     33      9      8     30 
    84     84     23      4      3     20 
    85     85     22      4      3     21 
    86     86     36     11     10      9 
    87     87     18      2      3      4 
    88     88     19      2      1     17 
    89     89     21      3      2      1 
    90     90     22      4      5      6 
    91     91     33      9      8     31 
    92     92     16      1      2      3 
    93     93     26      6      5     25 
    94     94     29      7      6     27 
    95     95     18      2      1     16 
    96     96     19      2      1     15 

Impropers

     1      1     12     11     13     14 
     2      2      1      2     15     16 
     3      3      1     17     15      2 
     4      4      2      1     18      3 
     5      5      2      1     19      3 
     6      6      3      4      2     20 
     7      7      3      2      4     21 
     8      8      4      3      5     22 
     9      9      4      3      5     23 
    10     10      5      4      6     24 
    11     11      5     25      4      6 
    12     12      6     26      5      7 
    13     13      6     27      5      7 
    14     14      7     28      6      8 
    15     15      7     29      6      8 
    16     16      8      9     30      7 
    17     17      8      9      7     31 
    18     18      9     10      8     32 
    19     19      9     33     10      8 
    20     20     10      9     34     11 
    21     21     10      9     35     11 
    22     22     11     12     10     36 
    23     23     11     10     12     37 

