#C12_acid

38 atoms
6 atom types

37 bonds
6 bond types

70 angles
9 angle types

98 dihedrals
8 dihedral types

23 impropers
2 improper types

-11.6204  38.3796  xlo xhi
0  50.11134  ylo yhi
-1.02606  48.97394  zlo zhi

Masses

1  12.011
2  12.011
3  15.999
4  15.999
5  1.008
6  1.008

Pair Coeffs

1  0.066  3.5
2  0.07  3.55
3  0.21  2.96
4  0.17  3.12
5  0.03  2.5
6  0.0  0.0

Bond Coeffs

1  268.0  1.529
2  317.0  1.522
3  570.0  1.229
4  450.0  1.364
5  340.0  1.09
6  553.0  0.945

Angle Coeffs

1  58.35  112.7
2  63.0  111.1
3  80.0  120.4
4  70.0  108.0
5  37.5  110.7
6  35.0  113.0
7  33.0  107.8
8  80.0  121.0
9  35.0  109.5

Dihedral Coeffs

1  1.3  -0.2  0.2  0.0
2  -2.06  -0.313  0.315  0.0
3  0.0  0.0  0.0  0.0
4  0.0  0.0  0.3  0.0
5  1.5  5.5  0.0  0.0
6  0.0  0.0  -0.1  0.0
7  1.0  0.546  0.45  0.0
8  0.0  5.5  0.0  0.0

Improper Coeffs

1  10.5  -1.0  2.0
2  0.0  -1.0  2.0

Atoms # full

1  1  1  -0.2389   1   1   0
2  1  1  -0.1794  -0.521   1   0
3  1  1  -0.1784  -1.074   1   1.42374
4  1  1  -0.1791  -2.602   1.0018   1.42703
5  1  1  -0.1789  -3.147   1.00359   2.85532
6  1  1  -0.179  -4.675   1.00359   2.86516
7  1  1  -0.1785  -5.218   1.00719   4.29438
8  1  1  -0.1785  -6.746   1.00537   4.29767
9  1  1  -0.1796  -7.304   1.01073   5.72094
10  1  1  -0.1708  -8.833   1.01062   5.70129
11  1  1  -0.2603  -9.415   1.01414   7.11267
12  1  2   0.5097  -10.926   1.01225   7.08999
13  1  3  -0.4443  -11.62   1.00841   6.08669
14  1  4  -0.5603  -11.456   1.01692   8.33619
15  1  5   0.0809   1.379   1.0013  -1.02606
16  1  5   0.0809   1.39   0.11134   0.5065
17  1  5   0.0809   1.39   1.88744   0.50878
18  1  5   0.0886  -0.88   0.11701  -0.54078
19  1  5   0.0886  -0.88   1.88306  -0.54082
20  1  5   0.0892  -0.704   1.88211   1.96071
21  1  5   0.0892  -0.706   0.11643   1.95996
22  1  5   0.09  -2.972   0.11864   0.89191
23  1  5   0.09  -2.97   1.88554   0.89155
24  1  5   0.0892  -2.776   1.88766   3.38801
25  1  5   0.0892  -2.776   0.12084   3.39025
26  1  5   0.0909  -5.045   0.11868   2.33289
27  1  5   0.0909  -5.045   1.88559   2.32857
28  1  5   0.0892  -4.849   1.89282   4.82569
29  1  5   0.0892  -4.848   0.12583   4.83197
30  1  5   0.0937  -7.112   0.11943   3.76412
31  1  5   0.0937  -7.114   1.88586   3.75666
32  1  5   0.0882  -6.942   1.89678   6.25612
33  1  5   0.0882  -6.941   0.12946   6.26312
34  1  5   0.1109  -9.192   0.12856   5.15662
35  1  5   0.1109  -9.192   1.88982   5.15226
36  1  5   0.1212  -9.08   1.90977   7.64789
37  1  5   0.1212  -9.078   0.12254   7.65323
38  1  6   0.4511  -10.787   1.02073   9.04582

Bonds

1  1  2  1
2  1  3  2
3  1  4  3
4  1  5  4
5  1  6  5
6  1  7  6
7  1  8  7
8  1  9  8
9  1  10  9
10  1  11  10
11  2  12  11
12  3  13  12
13  4  14  12
14  5  15  1
15  5  16  1
16  5  17  1
17  5  18  2
18  5  19  2
19  5  20  3
20  5  21  3
21  5  22  4
22  5  23  4
23  5  24  5
24  5  25  5
25  5  26  6
26  5  27  6
27  5  28  7
28  5  29  7
29  5  30  8
30  5  31  8
31  5  32  9
32  5  33  9
33  5  34  10
34  5  35  10
35  5  36  11
36  5  37  11
37  6  38  14

Angles

1  1  1  2  3
2  1  2  3  4
3  1  3  4  5
4  1  4  5  6
5  1  5  6  7
6  1  6  7  8
7  1  7  8  9
8  1  8  9  10
9  1  9  10  11
10  2  10  11  12
11  3  11  12  13
12  4  11  12  14
13  5  2  1  15
14  5  2  1  16
15  5  2  1  17
16  5  1  2  18
17  5  1  2  19
18  5  2  3  20
19  5  2  3  21
20  5  3  4  22
21  5  3  4  23
22  5  4  5  24
23  5  4  5  25
24  5  5  6  26
25  5  5  6  27
26  5  6  7  28
27  5  6  7  29
28  5  7  8  30
29  5  7  8  31
30  5  8  9  32
31  5  8  9  33
32  5  9  10  34
33  5  9  10  35
34  5  10  11  36
35  5  10  11  37
36  6  12  14  38
37  5  9  8  30
38  7  24  5  25
39  5  6  5  24
40  8  13  12  14
41  9  12  11  37
42  5  3  2  18
43  5  7  6  27
44  5  11  10  34
45  9  12  11  36
46  7  18  2  19
47  7  16  1  17
48  7  15  1  16
49  5  5  4  23
50  5  7  6  26
51  7  26  6  27
52  5  8  7  29
53  5  8  7  28
54  5  11  10  35
55  5  5  4  22
56  7  28  7  29
57  7  34  10  35
58  5  3  2  19
59  7  36  11  37
60  5  4  3  21
61  7  22  4  23
62  7  15  1  17
63  5  10  9  33
64  7  30  8  31
65  5  6  5  25
66  7  32  9  33
67  5  9  8  31
68  5  4  3  20
69  5  10  9  32
70  7  20  3  21

Dihedrals

1  1  4  3  2  1
2  1  5  4  3  2
3  1  6  5  4  3
4  1  7  6  5  4
5  1  8  7  6  5
6  1  9  8  7  6
7  1  10  9  8  7
8  1  11  10  9  8
9  2  12  11  10  9
10  3  13  12  11  10
11  4  15  1  2  3
12  5  38  14  12  11
13  4  23  4  3  21
14  4  31  8  7  29
15  6  35  10  11  12
16  4  35  10  9  8
17  7  14  12  11  10
18  4  28  7  8  9
19  3  36  11  12  13
20  4  25  5  4  3
21  4  31  8  7  6
22  4  28  7  6  26
23  4  32  9  10  11
24  4  37  11  10  35
25  4  25  5  4  23
26  4  20  3  2  19
27  4  21  3  2  18
28  6  34  10  11  12
29  4  25  5  6  7
30  4  37  11  10  9
31  4  29  7  8  9
32  4  33  9  8  7
33  4  30  8  9  10
34  4  27  6  5  24
35  4  28  7  6  5
36  4  34  10  9  32
37  4  30  8  7  28
38  4  18  2  1  15
39  8  38  14  12  13
40  4  29  7  6  26
41  4  28  7  6  27
42  4  30  8  7  6
43  4  26  6  5  4
44  4  23  4  5  6
45  4  35  10  9  33
46  4  20  3  2  1
47  4  20  3  2  18
48  4  22  4  3  20
49  3  36  11  12  14
50  3  37  11  12  13
51  4  27  6  5  25
52  4  19  2  1  16
53  4  35  10  9  32
54  4  34  10  9  33
55  4  24  5  4  23
56  4  25  5  4  22
57  4  22  4  3  2
58  3  37  11  12  14
59  4  20  3  4  5
60  4  32  9  8  30
61  4  24  5  6  7
62  4  27  6  5  4
63  4  23  4  3  2
64  4  18  2  1  17
65  4  34  10  9  8
66  4  26  6  5  24
67  4  21  3  2  19
68  4  21  3  4  5
69  4  31  8  9  10
70  4  33  9  10  11
71  4  24  5  4  3
72  4  37  11  10  34
73  4  36  11  10  35
74  4  32  9  8  7
75  4  27  6  7  8
76  4  17  1  2  3
77  4  31  8  7  28
78  4  30  8  7  29
79  4  24  5  4  22
80  4  19  2  3  4
81  4  29  7  6  27
82  4  26  6  7  8
83  4  29  7  6  5
84  4  36  11  10  34
85  4  32  9  8  31
86  4  33  9  8  30
87  4  23  4  3  20
88  4  22  4  3  21
89  4  36  11  10  9
90  4  18  2  3  4
91  4  19  2  1  17
92  4  21  3  2  1
93  4  22  4  5  6
94  4  33  9  8  31
95  4  16  1  2  3
96  4  26  6  5  25
97  4  18  2  1  16
98  4  19  2  1  15

Impropers

1  1  12  11  13  14
2  2  1  2  15  16
3  2  1  17  15  2
4  2  2  1  18  3
5  2  2  1  19  3
6  2  3  4  2  20
7  2  3  2  4  21
8  2  4  3  5  22
9  2  4  3  5  23
10  2  5  4  6  24
11  2  5  25  4  6
12  2  6  26  5  7
13  2  6  27  5  7
14  2  7  28  6  8
15  2  7  29  6  8
16  2  8  9  30  7
17  2  8  9  7  31
18  2  9  10  8  32
19  2  9  33  10  8
20  2  10  9  34  11
21  2  10  9  35  11
22  2  11  12  10  36
23  2  11  10  12  37
