#C12_anion

37 atoms
4 atom types

36 bonds
4 bond types

69 angles
7 angle types

96 dihedrals
5 dihedral types

23 impropers
2 improper types

-11.56561  38.43439  xlo xhi
0  50.10741  ylo yhi
-1.02651  48.97349  zlo zhi

Masses

1  12.011
2  12.011
3  15.999
4  1.008

Pair Coeffs

1  0.066  3.5
2  0.07  3.55
3  0.21  2.96
4  0.03  2.5

Bond Coeffs

1  268.0  1.529
2  317.0  1.522
3  656.0  1.25
4  340.0  1.09

Angle Coeffs

1  58.35  112.7
2  63.0  111.1
3  70.0  117.0
4  37.5  110.7
5  33.0  107.8
6  80.0  126.0
7  35.0  109.5

Dihedral Coeffs

1  1.3  -0.2  0.2  0.0
2  -2.06  -0.313  0.315  0.0
3  0.0  0.0  0.0  0.0
4  0.0  0.0  0.3  0.0
5  0.0  0.0  -0.1  0.0

Improper Coeffs

1  10.5  -1.0  2.0
2  0.0  -1.0  2.0

Atoms # full

1  1  1  -0.2088   1   1   0
2  1  1  -0.1578  -0.52   1   0
3  1  1  -0.1567  -1.073   1   1.42388
4  1  1  -0.1576  -2.602   0.9982   1.42552
5  1  1  -0.1572  -3.148   1.00001   2.85308
6  1  1  -0.1578  -4.675   0.99642   2.85799
7  1  1  -0.1577  -5.223   1.00003   4.28493
8  1  1  -0.1572  -6.751   0.9946   4.28167
9  1  1  -0.1611  -7.312   0.99994   5.70321
10  1  1  -0.1359  -8.841   0.99623   5.68355
11  1  1  -0.2327  -9.419   0.99969   7.09391
12  1  2   0.4281  -10.949   0.99804   7.16253
13  1  3  -0.6312  -11.566   0.99404   6.06186
14  1  3  -0.6312  -11.411   0.99949   8.34072
15  1  4   0.068   1.379   1.0013  -1.02651
16  1  4   0.068   1.391   0.11158   0.50635
17  1  4   0.068   1.391   1.88706   0.50856
18  1  4   0.0766  -0.88   0.11697  -0.5408
19  1  4   0.0766  -0.88   1.88362  -0.53974
20  1  4   0.0771  -0.707   1.88398   1.95959
21  1  4   0.0771  -0.705   0.11728   1.96046
22  1  4   0.0772  -2.969   0.11369   0.89082
23  1  4   0.0772  -2.971   1.88001   0.88777
24  1  4   0.0759  -2.78   1.88544   3.38535
25  1  4   0.0759  -2.776   0.119   3.39013
26  1  4   0.0766  -5.042   0.11025   2.32541
27  1  4   0.0766  -5.047   1.87684   2.31954
28  1  4   0.0734  -4.858   1.88709   4.81666
29  1  4   0.0734  -4.852   0.11974   4.82354
30  1  4   0.0754  -7.112   0.10741   3.74742
31  1  4   0.0754  -7.118   1.87372   3.73829
32  1  4   0.0651  -6.951   1.88701   6.23776
33  1  4   0.0651  -6.947   0.1196   6.24608
34  1  4   0.0793  -9.196   0.11175   5.14048
35  1  4   0.0793  -9.2   1.87528   5.13444
36  1  4   0.0588  -9.061   1.88575   7.63334
37  1  4   0.0588  -9.059   0.11772   7.63853

Bonds

1  1  2  1
2  1  3  2
3  1  4  3
4  1  5  4
5  1  6  5
6  1  7  6
7  1  8  7
8  1  9  8
9  1  10  9
10  1  11  10
11  2  12  11
12  3  13  12
13  3  14  12
14  4  15  1
15  4  16  1
16  4  17  1
17  4  18  2
18  4  19  2
19  4  20  3
20  4  21  3
21  4  22  4
22  4  23  4
23  4  24  5
24  4  25  5
25  4  26  6
26  4  27  6
27  4  28  7
28  4  29  7
29  4  30  8
30  4  31  8
31  4  32  9
32  4  33  9
33  4  34  10
34  4  35  10
35  4  36  11
36  4  37  11

Angles

1  1  1  2  3
2  1  2  3  4
3  1  3  4  5
4  1  4  5  6
5  1  5  6  7
6  1  6  7  8
7  1  7  8  9
8  1  8  9  10
9  1  9  10  11
10  2  10  11  12
11  3  11  12  13
12  3  11  12  14
13  4  2  1  15
14  4  2  1  16
15  4  2  1  17
16  4  1  2  18
17  4  1  2  19
18  4  2  3  20
19  4  2  3  21
20  4  3  4  22
21  4  3  4  23
22  4  4  5  24
23  4  4  5  25
24  4  5  6  26
25  4  5  6  27
26  4  6  7  28
27  4  6  7  29
28  4  7  8  30
29  4  7  8  31
30  4  8  9  32
31  4  8  9  33
32  4  9  10  34
33  4  9  10  35
34  4  10  11  36
35  4  10  11  37
36  4  9  8  30
37  5  24  5  25
38  4  6  5  24
39  6  13  12  14
40  7  12  11  37
41  4  3  2  18
42  4  7  6  27
43  4  11  10  34
44  7  12  11  36
45  5  18  2  19
46  5  16  1  17
47  5  15  1  16
48  4  5  4  23
49  4  7  6  26
50  5  26  6  27
51  4  8  7  29
52  4  8  7  28
53  4  11  10  35
54  4  5  4  22
55  5  28  7  29
56  5  34  10  35
57  4  3  2  19
58  5  36  11  37
59  4  4  3  21
60  5  22  4  23
61  5  15  1  17
62  4  10  9  33
63  5  30  8  31
64  4  6  5  25
65  5  32  9  33
66  4  9  8  31
67  4  4  3  20
68  4  10  9  32
69  5  20  3  21

Dihedrals

1  1  4  3  2  1
2  1  5  4  3  2
3  1  6  5  4  3
4  1  7  6  5  4
5  1  8  7  6  5
6  1  9  8  7  6
7  1  10  9  8  7
8  1  11  10  9  8
9  2  12  11  10  9
10  3  13  12  11  10
11  4  15  1  2  3
12  4  23  4  3  21
13  4  31  8  7  29
14  5  35  10  11  12
15  4  35  10  9  8
16  3  14  12  11  10
17  4  28  7  8  9
18  3  36  11  12  13
19  4  25  5  4  3
20  4  31  8  7  6
21  4  28  7  6  26
22  4  32  9  10  11
23  4  37  11  10  35
24  4  25  5  4  23
25  4  20  3  2  19
26  4  21  3  2  18
27  5  34  10  11  12
28  4  25  5  6  7
29  4  37  11  10  9
30  4  29  7  8  9
31  4  33  9  8  7
32  4  30  8  9  10
33  4  27  6  5  24
34  4  28  7  6  5
35  4  34  10  9  32
36  4  30  8  7  28
37  4  18  2  1  15
38  4  29  7  6  26
39  4  28  7  6  27
40  4  30  8  7  6
41  4  26  6  5  4
42  4  23  4  5  6
43  4  35  10  9  33
44  4  20  3  2  1
45  4  20  3  2  18
46  4  22  4  3  20
47  3  36  11  12  14
48  3  37  11  12  13
49  4  27  6  5  25
50  4  19  2  1  16
51  4  35  10  9  32
52  4  34  10  9  33
53  4  24  5  4  23
54  4  25  5  4  22
55  4  22  4  3  2
56  3  37  11  12  14
57  4  20  3  4  5
58  4  32  9  8  30
59  4  24  5  6  7
60  4  27  6  5  4
61  4  23  4  3  2
62  4  18  2  1  17
63  4  34  10  9  8
64  4  26  6  5  24
65  4  21  3  2  19
66  4  21  3  4  5
67  4  31  8  9  10
68  4  33  9  10  11
69  4  24  5  4  3
70  4  37  11  10  34
71  4  36  11  10  35
72  4  32  9  8  7
73  4  27  6  7  8
74  4  17  1  2  3
75  4  31  8  7  28
76  4  30  8  7  29
77  4  24  5  4  22
78  4  19  2  3  4
79  4  26  6  7  8
80  4  29  7  6  5
81  4  36  11  10  34
82  4  32  9  8  31
83  4  33  9  8  30
84  4  23  4  3  20
85  4  22  4  3  21
86  4  36  11  10  9
87  4  18  2  3  4
88  4  19  2  1  17
89  4  21  3  2  1
90  4  22  4  5  6
91  4  33  9  8  31
92  4  16  1  2  3
93  4  26  6  5  25
94  4  29  7  6  27
95  4  18  2  1  16
96  4  19  2  1  15

Impropers

1  1  12  11  13  14
2  2  1  2  15  16
3  2  1  17  15  2
4  2  2  1  18  3
5  2  2  1  19  3
6  2  3  4  2  20
7  2  3  2  4  21
8  2  4  3  5  22
9  2  4  3  5  23
10  2  5  4  6  24
11  2  5  25  4  6
12  2  6  26  5  7
13  2  6  27  5  7
14  2  7  28  6  8
15  2  7  29  6  8
16  2  8  9  30  7
17  2  8  9  7  31
18  2  9  10  8  32
19  2  9  33  10  8
20  2  10  9  34  11
21  2  10  9  35  11
22  2  11  12  10  36
23  2  11  10  12  37
