#C16_amine

52 atoms
4 atom types

51 bonds
4 bond types

99 angles
6 angle types

141 dihedrals
6 dihedral types

33 impropers
1 improper types

-16.50494  33.49506  xlo xhi
0  50.11123  ylo yhi
-1.02663  48.97337  zlo zhi

Masses

1  12.011
2  14.007
3  1.008
4  1.008

Pair Coeffs

1  0.066  3.5
2  0.17  3.3
3  0.03  2.5
4  0.0  0.0

Bond Coeffs

1  268.0  1.529
2  382.0  1.448
3  340.0  1.09
4  434.0  1.01

Angle Coeffs

1  58.35  112.7
2  56.2  109.47
3  37.5  110.7
4  35.0  109.5
5  33.0  107.8
6  43.6  106.4

Dihedral Coeffs

1  1.3  -0.2  0.2  0.0
2  2.392  -0.674  0.55  0.0
3  0.0  0.0  0.3  0.0
4  -0.19  -0.417  0.418  0.0
5  -1.013  -0.709  0.473  0.0
6  0.0  0.0  0.4  0.0

Improper Coeffs

1  0.0  -1.0  2.0

Atoms # full

1  1  1  -0.2389   1   1   0
2  1  1  -0.1796  -0.519   1   0
3  1  1  -0.1787  -1.071   1   1.42332
4  1  1  -0.1793  -2.598   0.9982   1.42332
5  1  1  -0.1793  -3.142   1.00001   2.84989
6  1  1  -0.1794  -4.668   1.00002   2.85315
7  1  1  -0.1795  -5.209   1.00003   4.28001
8  1  1  -0.1794  -6.734   1.00184   4.28327
9  1  1  -0.1795  -7.273   1.00365   5.71029
10  1  1  -0.1795  -8.798   1.00727   5.71355
11  1  1  -0.1795  -9.337   1.01088   7.14116
12  1  1  -0.1794  -10.863   1.0163   7.14442
13  1  1  -0.1783  -11.403   1.01811   8.5728
14  1  1  -0.1794  -12.929   1.02533   8.57933
15  1  1  -0.1815  -13.469   1.02534   10.00951
16  1  1   0.0882  -14.995   1.03076   10.01604
17  1  2  -0.9265  -15.488   1.03241   11.38771
18  1  3   0.0808   1.379   1.0013  -1.02663
19  1  3   0.0808   1.39   0.11123   0.50656
20  1  3   0.0808   1.39   1.88736   0.50873
21  1  3   0.0883  -0.88   0.11662  -0.53959
22  1  3   0.0883  -0.881   1.88353  -0.53968
23  1  3   0.0895  -0.704   1.88389   1.95973
24  1  3   0.0895  -0.702   0.11748   1.96054
25  1  3   0.0894  -2.966   0.11348   0.88951
26  1  3   0.0894  -2.968   1.88027   0.88643
27  1  3   0.0896  -2.773   1.88419   3.38419
28  1  3   0.0896  -2.773   0.11733   3.38635
29  1  3   0.0896  -5.038   0.11645   2.31849
30  1  3   0.0896  -5.038   1.8834   2.31859
31  1  3   0.0898  -4.838   1.88277   4.81498
32  1  3   0.0898  -4.84   0.11593   4.81421
33  1  3   0.0897  -7.105   0.11847   3.74946
34  1  3   0.0897  -7.103   1.88532   3.74794
35  1  3   0.0899  -6.9   1.88651   6.24422
36  1  3   0.0899  -6.903   0.12007   6.24525
37  1  3   0.0897  -9.17   0.12385   5.18043
38  1  3   0.0897  -9.166   1.89084   5.17744
39  1  3   0.0901  -8.963   1.89383   7.67327
40  1  3   0.0901  -8.968   0.12724   7.67571
41  1  3   0.0896  -11.235   0.13398   6.60963
42  1  3   0.0896  -11.229   1.90051   6.60882
43  1  3   0.091  -11.026   1.89964   9.10597
44  1  3   0.091  -11.034   0.13308   9.10471
45  1  3   0.0891  -13.303   0.14429   8.04376
46  1  3   0.0891  -13.296   1.91103   8.04596
47  1  3   0.0986  -13.09   1.90654   10.54239
48  1  3   0.0986  -13.095   0.14077   10.5392
49  1  3   0.0777  -15.378   0.14917   9.49092
50  1  3   0.0777  -15.37   1.92039   9.49901
51  1  4   0.332  -15.159   0.19608   11.87006
52  1  4   0.332  -16.505   0.9772   11.37969

Bonds

1  1  2  1
2  1  3  2
3  1  4  3
4  1  5  4
5  1  6  5
6  1  7  6
7  1  8  7
8  1  9  8
9  1  10  9
10  1  11  10
11  1  12  11
12  1  13  12
13  1  14  13
14  1  15  14
15  1  16  15
16  2  17  16
17  3  18  1
18  3  19  1
19  3  20  1
20  3  21  2
21  3  22  2
22  3  23  3
23  3  24  3
24  3  25  4
25  3  26  4
26  3  27  5
27  3  28  5
28  3  29  6
29  3  30  6
30  3  31  7
31  3  32  7
32  3  33  8
33  3  34  8
34  3  35  9
35  3  36  9
36  3  37  10
37  3  38  10
38  3  39  11
39  3  40  11
40  3  41  12
41  3  42  12
42  3  43  13
43  3  44  13
44  3  45  14
45  3  46  14
46  3  47  15
47  3  48  15
48  3  49  16
49  3  50  16
50  4  51  17
51  4  52  17

Angles

1  1  1  2  3
2  1  2  3  4
3  1  3  4  5
4  1  4  5  6
5  1  5  6  7
6  1  6  7  8
7  1  7  8  9
8  1  8  9  10
9  1  9  10  11
10  1  10  11  12
11  1  11  12  13
12  1  12  13  14
13  1  13  14  15
14  1  14  15  16
15  2  15  16  17
16  3  2  1  18
17  3  2  1  19
18  3  2  1  20
19  3  1  2  21
20  3  1  2  22
21  3  2  3  23
22  3  2  3  24
23  3  3  4  25
24  3  3  4  26
25  3  4  5  27
26  3  4  5  28
27  3  5  6  29
28  3  5  6  30
29  3  6  7  31
30  3  6  7  32
31  3  7  8  33
32  3  7  8  34
33  3  8  9  35
34  3  8  9  36
35  3  9  10  37
36  3  9  10  38
37  3  10  11  39
38  3  10  11  40
39  3  11  12  41
40  3  11  12  42
41  3  12  13  43
42  3  12  13  44
43  3  13  14  45
44  3  13  14  46
45  3  14  15  47
46  3  14  15  48
47  3  15  16  49
48  3  15  16  50
49  4  16  17  51
50  4  16  17  52
51  5  47  15  48
52  3  11  10  38
53  5  25  4  26
54  3  4  3  23
55  5  41  12  42
56  3  4  3  24
57  4  17  16  50
58  3  5  4  26
59  5  27  5  28
60  5  35  9  36
61  5  39  11  40
62  5  18  1  19
63  3  9  8  34
64  5  31  7  32
65  3  12  11  39
66  3  8  7  32
67  3  5  4  25
68  3  8  7  31
69  3  15  14  46
70  5  21  2  22
71  5  45  14  46
72  3  13  12  42
73  6  51  17  52
74  5  33  8  34
75  5  23  3  24
76  3  16  15  47
77  3  6  5  27
78  5  49  16  50
79  5  43  13  44
80  3  7  6  29
81  3  10  9  35
82  5  29  6  30
83  5  18  1  20
84  5  37  10  38
85  3  15  14  45
86  3  13  12  41
87  3  9  8  33
88  3  3  2  21
89  3  7  6  30
90  3  16  15  48
91  3  14  13  43
92  3  3  2  22
93  3  6  5  28
94  3  12  11  40
95  4  17  16  49
96  3  11  10  37
97  3  10  9  36
98  5  19  1  20
99  3  14  13  44

Dihedrals

1  1  4  3  2  1
2  1  5  4  3  2
3  1  6  5  4  3
4  1  7  6  5  4
5  1  8  7  6  5
6  1  9  8  7  6
7  1  10  9  8  7
8  1  11  10  9  8
9  1  12  11  10  9
10  1  13  12  11  10
11  1  14  13  12  11
12  1  15  14  13  12
13  1  16  15  14  13
14  2  17  16  15  14
15  3  18  1  2  3
16  4  51  17  16  15
17  3  34  8  7  6
18  3  50  16  15  48
19  3  31  7  6  5
20  3  31  7  8  9
21  3  38  10  9  8
22  3  35  9  10  11
23  3  29  6  5  4
24  3  43  13  12  41
25  3  47  15  14  13
26  3  26  4  3  23
27  3  25  4  3  24
28  3  19  1  2  3
29  5  48  15  16  17
30  3  33  8  7  6
31  3  32  7  6  29
32  3  31  7  6  30
33  3  25  4  5  6
34  3  32  7  8  9
35  3  28  5  4  3
36  3  23  3  4  5
37  3  24  3  2  22
38  6  51  17  16  50
39  6  52  17  16  49
40  3  44  13  12  41
41  3  43  13  12  42
42  3  45  14  13  44
43  3  36  9  8  7
44  3  29  6  5  27
45  3  22  2  3  4
46  3  49  16  15  14
47  3  24  3  2  21
48  3  23  3  2  22
49  3  22  2  1  18
50  3  26  4  3  2
51  3  28  5  6  7
52  3  33  8  7  32
53  3  34  8  7  31
54  3  30  6  7  8
55  6  51  17  16  49
56  3  40  11  12  13
57  3  22  2  1  20
58  3  46  14  13  43
59  3  36  9  10  11
60  3  21  2  1  18
61  3  37  10  9  35
62  3  38  10  9  36
63  3  32  7  6  30
64  3  39  11  10  38
65  3  44  13  14  15
66  3  40  11  10  38
67  3  35  9  8  7
68  3  35  9  8  33
69  3  41  12  11  10
70  3  39  11  10  9
71  3  30  6  5  4
72  3  27  5  6  7
73  3  40  11  10  37
74  3  37  10  9  8
75  3  42  12  11  39
76  3  41  12  11  40
77  3  48  15  14  46
78  3  24  3  4  5
79  3  48  15  14  13
80  3  41  12  11  39
81  3  42  12  11  40
82  3  45  14  15  16
83  5  47  15  16  17
84  3  21  2  1  20
85  3  22  2  1  19
86  3  48  15  14  45
87  3  47  15  14  46
88  4  52  17  16  15
89  3  33  8  7  31
90  3  39  11  12  13
91  3  42  12  13  14
92  3  29  6  7  8
93  3  32  7  6  5
94  3  36  9  8  34
95  3  31  7  6  29
96  3  45  14  13  43
97  3  25  4  3  23
98  3  50  16  15  14
99  3  34  8  9  10
100  3  30  6  5  28
101  3  23  3  2  1
102  3  42  12  11  10
103  3  43  13  12  11
104  3  23  3  2  21
105  3  34  8  7  32
106  3  21  2  3  4
107  3  36  9  8  33
108  3  35  9  8  34
109  3  24  3  2  1
110  3  20  1  2  3
111  3  38  10  9  35
112  3  37  10  9  36
113  3  28  5  4  26
114  3  28  5  4  25
115  3  27  5  4  26
116  3  27  5  4  25
117  3  49  16  15  47
118  3  26  4  5  6
119  3  44  13  12  42
120  3  46  14  13  44
121  3  39  11  10  37
122  3  27  5  4  3
123  3  45  14  13  12
124  3  40  11  10  9
125  3  37  10  11  12
126  3  21  2  1  19
127  3  29  6  5  28
128  3  30  6  5  27
129  3  47  15  14  45
130  3  25  4  3  2
131  3  41  12  13  14
132  3  44  13  12  11
133  6  52  17  16  50
134  3  33  8  9  10
135  3  26  4  3  24
136  3  43  13  14  15
137  3  46  14  13  12
138  3  46  14  15  16
139  3  38  10  11  12
140  3  50  16  15  47
141  3  49  16  15  48

Impropers

1  1  1  2  19  18
2  1  1  2  20  18
3  1  2  1  3  21
4  1  2  1  3  22
5  1  3  2  4  23
6  1  3  2  4  24
7  1  4  25  3  5
8  1  4  26  3  5
9  1  5  27  4  6
10  1  5  4  28  6
11  1  6  5  29  7
12  1  6  5  30  7
13  1  7  8  31  6
14  1  7  8  6  32
15  1  8  33  9  7
16  1  8  9  34  7
17  1  9  10  35  8
18  1  9  10  36  8
19  1  10  9  11  37
20  1  10  9  11  38
21  1  11  10  12  39
22  1  11  10  12  40
23  1  12  41  11  13
24  1  12  42  11  13
25  1  13  43  12  14
26  1  13  12  44  14
27  1  14  13  45  15
28  1  14  13  46  15
29  1  15  16  47  14
30  1  15  16  14  48
31  1  16  49  17  15
32  1  16  17  50  15
33  1  17  51  52  16
