LAMMPS data file Created by LigParGen - (Written by Leela S. Dodda)

      52 atoms
      51 bonds
      99 angles
     141 dihedrals
      33 impropers
 
      52 atom types
      51 bond types
      99 angle types
     141 dihedral types
      33 improper types
 
  -16.504940    33.495060 xlo xhi
    0.111230    50.111230 ylo yhi
   -1.026630    48.973370 zlo zhi

Masses

       1     12.011  
       2     12.011  
       3     12.011  
       4     12.011  
       5     12.011  
       6     12.011  
       7     12.011  
       8     12.011  
       9     12.011  
      10     12.011  
      11     12.011  
      12     12.011  
      13     12.011  
      14     12.011  
      15     12.011  
      16     12.011  
      17     14.007  
      18      1.008  
      19      1.008  
      20      1.008  
      21      1.008  
      22      1.008  
      23      1.008  
      24      1.008  
      25      1.008  
      26      1.008  
      27      1.008  
      28      1.008  
      29      1.008  
      30      1.008  
      31      1.008  
      32      1.008  
      33      1.008  
      34      1.008  
      35      1.008  
      36      1.008  
      37      1.008  
      38      1.008  
      39      1.008  
      40      1.008  
      41      1.008  
      42      1.008  
      43      1.008  
      44      1.008  
      45      1.008  
      46      1.008  
      47      1.008  
      48      1.008  
      49      1.008  
      50      1.008  
      51      1.008  
      52      1.008  

Pair Coeffs 

       1      0.066  3.5000000 
       2      0.066  3.5000000 
       3      0.066  3.5000000 
       4      0.066  3.5000000 
       5      0.066  3.5000000 
       6      0.066  3.5000000 
       7      0.066  3.5000000 
       8      0.066  3.5000000 
       9      0.066  3.5000000 
      10      0.066  3.5000000 
      11      0.066  3.5000000 
      12      0.066  3.5000000 
      13      0.066  3.5000000 
      14      0.066  3.5000000 
      15      0.066  3.5000000 
      16      0.066  3.5000000 
      17      0.170  3.3000000 
      18      0.030  2.5000000 
      19      0.030  2.5000000 
      20      0.030  2.5000000 
      21      0.030  2.5000000 
      22      0.030  2.5000000 
      23      0.030  2.5000000 
      24      0.030  2.5000000 
      25      0.030  2.5000000 
      26      0.030  2.5000000 
      27      0.030  2.5000000 
      28      0.030  2.5000000 
      29      0.030  2.5000000 
      30      0.030  2.5000000 
      31      0.030  2.5000000 
      32      0.030  2.5000000 
      33      0.030  2.5000000 
      34      0.030  2.5000000 
      35      0.030  2.5000000 
      36      0.030  2.5000000 
      37      0.030  2.5000000 
      38      0.030  2.5000000 
      39      0.030  2.5000000 
      40      0.030  2.5000000 
      41      0.030  2.5000000 
      42      0.030  2.5000000 
      43      0.030  2.5000000 
      44      0.030  2.5000000 
      45      0.030  2.5000000 
      46      0.030  2.5000000 
      47      0.030  2.5000000 
      48      0.030  2.5000000 
      49      0.030  2.5000000 
      50      0.030  2.5000000 
      51      0.000  0.0000000 
      52      0.000  0.0000000 

Bond Coeffs 

       1   268.0000     1.5290 
       2   268.0000     1.5290 
       3   268.0000     1.5290 
       4   268.0000     1.5290 
       5   268.0000     1.5290 
       6   268.0000     1.5290 
       7   268.0000     1.5290 
       8   268.0000     1.5290 
       9   268.0000     1.5290 
      10   268.0000     1.5290 
      11   268.0000     1.5290 
      12   268.0000     1.5290 
      13   268.0000     1.5290 
      14   268.0000     1.5290 
      15   268.0000     1.5290 
      16   382.0000     1.4480 
      17   340.0000     1.0900 
      18   340.0000     1.0900 
      19   340.0000     1.0900 
      20   340.0000     1.0900 
      21   340.0000     1.0900 
      22   340.0000     1.0900 
      23   340.0000     1.0900 
      24   340.0000     1.0900 
      25   340.0000     1.0900 
      26   340.0000     1.0900 
      27   340.0000     1.0900 
      28   340.0000     1.0900 
      29   340.0000     1.0900 
      30   340.0000     1.0900 
      31   340.0000     1.0900 
      32   340.0000     1.0900 
      33   340.0000     1.0900 
      34   340.0000     1.0900 
      35   340.0000     1.0900 
      36   340.0000     1.0900 
      37   340.0000     1.0900 
      38   340.0000     1.0900 
      39   340.0000     1.0900 
      40   340.0000     1.0900 
      41   340.0000     1.0900 
      42   340.0000     1.0900 
      43   340.0000     1.0900 
      44   340.0000     1.0900 
      45   340.0000     1.0900 
      46   340.0000     1.0900 
      47   340.0000     1.0900 
      48   340.0000     1.0900 
      49   340.0000     1.0900 
      50   434.0000     1.0100 
      51   434.0000     1.0100 

Angle Coeffs 

       1     58.350    112.700
       2     58.350    112.700
       3     58.350    112.700
       4     58.350    112.700
       5     58.350    112.700
       6     58.350    112.700
       7     58.350    112.700
       8     58.350    112.700
       9     58.350    112.700
      10     58.350    112.700
      11     58.350    112.700
      12     58.350    112.700
      13     58.350    112.700
      14     58.350    112.700
      15     56.200    109.470
      16     37.500    110.700
      17     37.500    110.700
      18     37.500    110.700
      19     37.500    110.700
      20     37.500    110.700
      21     37.500    110.700
      22     37.500    110.700
      23     37.500    110.700
      24     37.500    110.700
      25     37.500    110.700
      26     37.500    110.700
      27     37.500    110.700
      28     37.500    110.700
      29     37.500    110.700
      30     37.500    110.700
      31     37.500    110.700
      32     37.500    110.700
      33     37.500    110.700
      34     37.500    110.700
      35     37.500    110.700
      36     37.500    110.700
      37     37.500    110.700
      38     37.500    110.700
      39     37.500    110.700
      40     37.500    110.700
      41     37.500    110.700
      42     37.500    110.700
      43     37.500    110.700
      44     37.500    110.700
      45     37.500    110.700
      46     37.500    110.700
      47     37.500    110.700
      48     37.500    110.700
      49     35.000    109.500
      50     35.000    109.500
      51     33.000    107.800
      52     37.500    110.700
      53     33.000    107.800
      54     37.500    110.700
      55     33.000    107.800
      56     37.500    110.700
      57     35.000    109.500
      58     37.500    110.700
      59     33.000    107.800
      60     33.000    107.800
      61     33.000    107.800
      62     33.000    107.800
      63     37.500    110.700
      64     33.000    107.800
      65     37.500    110.700
      66     37.500    110.700
      67     37.500    110.700
      68     37.500    110.700
      69     37.500    110.700
      70     33.000    107.800
      71     33.000    107.800
      72     37.500    110.700
      73     43.600    106.400
      74     33.000    107.800
      75     33.000    107.800
      76     37.500    110.700
      77     37.500    110.700
      78     33.000    107.800
      79     33.000    107.800
      80     37.500    110.700
      81     37.500    110.700
      82     33.000    107.800
      83     33.000    107.800
      84     33.000    107.800
      85     37.500    110.700
      86     37.500    110.700
      87     37.500    110.700
      88     37.500    110.700
      89     37.500    110.700
      90     37.500    110.700
      91     37.500    110.700
      92     37.500    110.700
      93     37.500    110.700
      94     37.500    110.700
      95     35.000    109.500
      96     37.500    110.700
      97     37.500    110.700
      98     33.000    107.800
      99     37.500    110.700

Dihedral Coeffs  

       1      1.300     -0.200      0.200      0.000 
       2      1.300     -0.200      0.200      0.000 
       3      1.300     -0.200      0.200      0.000 
       4      1.300     -0.200      0.200      0.000 
       5      1.300     -0.200      0.200      0.000 
       6      1.300     -0.200      0.200      0.000 
       7      1.300     -0.200      0.200      0.000 
       8      1.300     -0.200      0.200      0.000 
       9      1.300     -0.200      0.200      0.000 
      10      1.300     -0.200      0.200      0.000 
      11      1.300     -0.200      0.200      0.000 
      12      1.300     -0.200      0.200      0.000 
      13      1.300     -0.200      0.200      0.000 
      14      2.392     -0.674      0.550      0.000 
      15      0.000      0.000      0.300      0.000 
      16     -0.190     -0.417      0.418      0.000 
      17      0.000      0.000      0.300      0.000 
      18      0.000      0.000      0.300      0.000 
      19      0.000      0.000      0.300      0.000 
      20      0.000      0.000      0.300      0.000 
      21      0.000      0.000      0.300      0.000 
      22      0.000      0.000      0.300      0.000 
      23      0.000      0.000      0.300      0.000 
      24      0.000      0.000      0.300      0.000 
      25      0.000      0.000      0.300      0.000 
      26      0.000      0.000      0.300      0.000 
      27      0.000      0.000      0.300      0.000 
      28      0.000      0.000      0.300      0.000 
      29     -1.013     -0.709      0.473      0.000 
      30      0.000      0.000      0.300      0.000 
      31      0.000      0.000      0.300      0.000 
      32      0.000      0.000      0.300      0.000 
      33      0.000      0.000      0.300      0.000 
      34      0.000      0.000      0.300      0.000 
      35      0.000      0.000      0.300      0.000 
      36      0.000      0.000      0.300      0.000 
      37      0.000      0.000      0.300      0.000 
      38      0.000      0.000      0.400      0.000 
      39      0.000      0.000      0.400      0.000 
      40      0.000      0.000      0.300      0.000 
      41      0.000      0.000      0.300      0.000 
      42      0.000      0.000      0.300      0.000 
      43      0.000      0.000      0.300      0.000 
      44      0.000      0.000      0.300      0.000 
      45      0.000      0.000      0.300      0.000 
      46      0.000      0.000      0.300      0.000 
      47      0.000      0.000      0.300      0.000 
      48      0.000      0.000      0.300      0.000 
      49      0.000      0.000      0.300      0.000 
      50      0.000      0.000      0.300      0.000 
      51      0.000      0.000      0.300      0.000 
      52      0.000      0.000      0.300      0.000 
      53      0.000      0.000      0.300      0.000 
      54      0.000      0.000      0.300      0.000 
      55      0.000      0.000      0.400      0.000 
      56      0.000      0.000      0.300      0.000 
      57      0.000      0.000      0.300      0.000 
      58      0.000      0.000      0.300      0.000 
      59      0.000      0.000      0.300      0.000 
      60      0.000      0.000      0.300      0.000 
      61      0.000      0.000      0.300      0.000 
      62      0.000      0.000      0.300      0.000 
      63      0.000      0.000      0.300      0.000 
      64      0.000      0.000      0.300      0.000 
      65      0.000      0.000      0.300      0.000 
      66      0.000      0.000      0.300      0.000 
      67      0.000      0.000      0.300      0.000 
      68      0.000      0.000      0.300      0.000 
      69      0.000      0.000      0.300      0.000 
      70      0.000      0.000      0.300      0.000 
      71      0.000      0.000      0.300      0.000 
      72      0.000      0.000      0.300      0.000 
      73      0.000      0.000      0.300      0.000 
      74      0.000      0.000      0.300      0.000 
      75      0.000      0.000      0.300      0.000 
      76      0.000      0.000      0.300      0.000 
      77      0.000      0.000      0.300      0.000 
      78      0.000      0.000      0.300      0.000 
      79      0.000      0.000      0.300      0.000 
      80      0.000      0.000      0.300      0.000 
      81      0.000      0.000      0.300      0.000 
      82      0.000      0.000      0.300      0.000 
      83     -1.013     -0.709      0.473      0.000 
      84      0.000      0.000      0.300      0.000 
      85      0.000      0.000      0.300      0.000 
      86      0.000      0.000      0.300      0.000 
      87      0.000      0.000      0.300      0.000 
      88     -0.190     -0.417      0.418      0.000 
      89      0.000      0.000      0.300      0.000 
      90      0.000      0.000      0.300      0.000 
      91      0.000      0.000      0.300      0.000 
      92      0.000      0.000      0.300      0.000 
      93      0.000      0.000      0.300      0.000 
      94      0.000      0.000      0.300      0.000 
      95      0.000      0.000      0.300      0.000 
      96      0.000      0.000      0.300      0.000 
      97      0.000      0.000      0.300      0.000 
      98      0.000      0.000      0.300      0.000 
      99      0.000      0.000      0.300      0.000 
     100      0.000      0.000      0.300      0.000 
     101      0.000      0.000      0.300      0.000 
     102      0.000      0.000      0.300      0.000 
     103      0.000      0.000      0.300      0.000 
     104      0.000      0.000      0.300      0.000 
     105      0.000      0.000      0.300      0.000 
     106      0.000      0.000      0.300      0.000 
     107      0.000      0.000      0.300      0.000 
     108      0.000      0.000      0.300      0.000 
     109      0.000      0.000      0.300      0.000 
     110      0.000      0.000      0.300      0.000 
     111      0.000      0.000      0.300      0.000 
     112      0.000      0.000      0.300      0.000 
     113      0.000      0.000      0.300      0.000 
     114      0.000      0.000      0.300      0.000 
     115      0.000      0.000      0.300      0.000 
     116      0.000      0.000      0.300      0.000 
     117      0.000      0.000      0.300      0.000 
     118      0.000      0.000      0.300      0.000 
     119      0.000      0.000      0.300      0.000 
     120      0.000      0.000      0.300      0.000 
     121      0.000      0.000      0.300      0.000 
     122      0.000      0.000      0.300      0.000 
     123      0.000      0.000      0.300      0.000 
     124      0.000      0.000      0.300      0.000 
     125      0.000      0.000      0.300      0.000 
     126      0.000      0.000      0.300      0.000 
     127      0.000      0.000      0.300      0.000 
     128      0.000      0.000      0.300      0.000 
     129      0.000      0.000      0.300      0.000 
     130      0.000      0.000      0.300      0.000 
     131      0.000      0.000      0.300      0.000 
     132      0.000      0.000      0.300      0.000 
     133      0.000      0.000      0.400      0.000 
     134      0.000      0.000      0.300      0.000 
     135      0.000      0.000      0.300      0.000 
     136      0.000      0.000      0.300      0.000 
     137      0.000      0.000      0.300      0.000 
     138      0.000      0.000      0.300      0.000 
     139      0.000      0.000      0.300      0.000 
     140      0.000      0.000      0.300      0.000 
     141      0.000      0.000      0.300      0.000 

Improper Coeffs 

       1      0.000      -1       2 
       2      0.000      -1       2 
       3      0.000      -1       2 
       4      0.000      -1       2 
       5      0.000      -1       2 
       6      0.000      -1       2 
       7      0.000      -1       2 
       8      0.000      -1       2 
       9      0.000      -1       2 
      10      0.000      -1       2 
      11      0.000      -1       2 
      12      0.000      -1       2 
      13      0.000      -1       2 
      14      0.000      -1       2 
      15      0.000      -1       2 
      16      0.000      -1       2 
      17      0.000      -1       2 
      18      0.000      -1       2 
      19      0.000      -1       2 
      20      0.000      -1       2 
      21      0.000      -1       2 
      22      0.000      -1       2 
      23      0.000      -1       2 
      24      0.000      -1       2 
      25      0.000      -1       2 
      26      0.000      -1       2 
      27      0.000      -1       2 
      28      0.000      -1       2 
      29      0.000      -1       2 
      30      0.000      -1       2 
      31      0.000      -1       2 
      32      0.000      -1       2 
      33      0.000      -1       2 

Atoms 

     1      1      1 -0.23890000    1.000  1.00000  0.00000
     2      1      2 -0.17960000   -0.519  1.00000  0.00000
     3      1      3 -0.17870000   -1.071  1.00000  1.42332
     4      1      4 -0.17930000   -2.598  0.99820  1.42332
     5      1      5 -0.17930000   -3.142  1.00001  2.84989
     6      1      6 -0.17940000   -4.668  1.00002  2.85315
     7      1      7 -0.17950000   -5.209  1.00003  4.28001
     8      1      8 -0.17940000   -6.734  1.00184  4.28327
     9      1      9 -0.17950000   -7.273  1.00365  5.71029
    10      1     10 -0.17950000   -8.798  1.00727  5.71355
    11      1     11 -0.17950000   -9.337  1.01088  7.14116
    12      1     12 -0.17940000  -10.863  1.01630  7.14442
    13      1     13 -0.17830000  -11.403  1.01811  8.57280
    14      1     14 -0.17940000  -12.929  1.02533  8.57933
    15      1     15 -0.18150000  -13.469  1.02534 10.00951
    16      1     16 0.08820000  -14.995  1.03076 10.01604
    17      1     17 -0.92650000  -15.488  1.03241 11.38771
    18      1     18 0.08080000    1.379  1.00130 -1.02663
    19      1     19 0.08080000    1.390  0.11123  0.50656
    20      1     20 0.08080000    1.390  1.88736  0.50873
    21      1     21 0.08830000   -0.880  0.11662 -0.53959
    22      1     22 0.08830000   -0.881  1.88353 -0.53968
    23      1     23 0.08950000   -0.704  1.88389  1.95973
    24      1     24 0.08950000   -0.702  0.11748  1.96054
    25      1     25 0.08940000   -2.966  0.11348  0.88951
    26      1     26 0.08940000   -2.968  1.88027  0.88643
    27      1     27 0.08960000   -2.773  1.88419  3.38419
    28      1     28 0.08960000   -2.773  0.11733  3.38635
    29      1     29 0.08960000   -5.038  0.11645  2.31849
    30      1     30 0.08960000   -5.038  1.88340  2.31859
    31      1     31 0.08980000   -4.838  1.88277  4.81498
    32      1     32 0.08980000   -4.840  0.11593  4.81421
    33      1     33 0.08970000   -7.105  0.11847  3.74946
    34      1     34 0.08970000   -7.103  1.88532  3.74794
    35      1     35 0.08990000   -6.900  1.88651  6.24422
    36      1     36 0.08990000   -6.903  0.12007  6.24525
    37      1     37 0.08970000   -9.170  0.12385  5.18043
    38      1     38 0.08970000   -9.166  1.89084  5.17744
    39      1     39 0.09010000   -8.963  1.89383  7.67327
    40      1     40 0.09010000   -8.968  0.12724  7.67571
    41      1     41 0.08960000  -11.235  0.13398  6.60963
    42      1     42 0.08960000  -11.229  1.90051  6.60882
    43      1     43 0.09100000  -11.026  1.89964  9.10597
    44      1     44 0.09100000  -11.034  0.13308  9.10471
    45      1     45 0.08910000  -13.303  0.14429  8.04376
    46      1     46 0.08910000  -13.296  1.91103  8.04596
    47      1     47 0.09860000  -13.090  1.90654 10.54239
    48      1     48 0.09860000  -13.095  0.14077 10.53920
    49      1     49 0.07770000  -15.378  0.14917  9.49092
    50      1     50 0.07770000  -15.370  1.92039  9.49901
    51      1     51 0.33200000  -15.159  0.19608 11.87006
    52      1     52 0.33200000  -16.505  0.97720 11.37969

Bonds 

     1      1      2      1
     2      2      3      2
     3      3      4      3
     4      4      5      4
     5      5      6      5
     6      6      7      6
     7      7      8      7
     8      8      9      8
     9      9     10      9
    10     10     11     10
    11     11     12     11
    12     12     13     12
    13     13     14     13
    14     14     15     14
    15     15     16     15
    16     16     17     16
    17     17     18      1
    18     18     19      1
    19     19     20      1
    20     20     21      2
    21     21     22      2
    22     22     23      3
    23     23     24      3
    24     24     25      4
    25     25     26      4
    26     26     27      5
    27     27     28      5
    28     28     29      6
    29     29     30      6
    30     30     31      7
    31     31     32      7
    32     32     33      8
    33     33     34      8
    34     34     35      9
    35     35     36      9
    36     36     37     10
    37     37     38     10
    38     38     39     11
    39     39     40     11
    40     40     41     12
    41     41     42     12
    42     42     43     13
    43     43     44     13
    44     44     45     14
    45     45     46     14
    46     46     47     15
    47     47     48     15
    48     48     49     16
    49     49     50     16
    50     50     51     17
    51     51     52     17

Angles 

     1      1      1      2      3
     2      2      2      3      4
     3      3      3      4      5
     4      4      4      5      6
     5      5      5      6      7
     6      6      6      7      8
     7      7      7      8      9
     8      8      8      9     10
     9      9      9     10     11
    10     10     10     11     12
    11     11     11     12     13
    12     12     12     13     14
    13     13     13     14     15
    14     14     14     15     16
    15     15     15     16     17
    16     16      2      1     18
    17     17      2      1     19
    18     18      2      1     20
    19     19      1      2     21
    20     20      1      2     22
    21     21      2      3     23
    22     22      2      3     24
    23     23      3      4     25
    24     24      3      4     26
    25     25      4      5     27
    26     26      4      5     28
    27     27      5      6     29
    28     28      5      6     30
    29     29      6      7     31
    30     30      6      7     32
    31     31      7      8     33
    32     32      7      8     34
    33     33      8      9     35
    34     34      8      9     36
    35     35      9     10     37
    36     36      9     10     38
    37     37     10     11     39
    38     38     10     11     40
    39     39     11     12     41
    40     40     11     12     42
    41     41     12     13     43
    42     42     12     13     44
    43     43     13     14     45
    44     44     13     14     46
    45     45     14     15     47
    46     46     14     15     48
    47     47     15     16     49
    48     48     15     16     50
    49     49     16     17     51
    50     50     16     17     52
    51     51     47     15     48
    52     52     11     10     38
    53     53     25      4     26
    54     54      4      3     23
    55     55     41     12     42
    56     56      4      3     24
    57     57     17     16     50
    58     58      5      4     26
    59     59     27      5     28
    60     60     35      9     36
    61     61     39     11     40
    62     62     18      1     19
    63     63      9      8     34
    64     64     31      7     32
    65     65     12     11     39
    66     66      8      7     32
    67     67      5      4     25
    68     68      8      7     31
    69     69     15     14     46
    70     70     21      2     22
    71     71     45     14     46
    72     72     13     12     42
    73     73     51     17     52
    74     74     33      8     34
    75     75     23      3     24
    76     76     16     15     47
    77     77      6      5     27
    78     78     49     16     50
    79     79     43     13     44
    80     80      7      6     29
    81     81     10      9     35
    82     82     29      6     30
    83     83     18      1     20
    84     84     37     10     38
    85     85     15     14     45
    86     86     13     12     41
    87     87      9      8     33
    88     88      3      2     21
    89     89      7      6     30
    90     90     16     15     48
    91     91     14     13     43
    92     92      3      2     22
    93     93      6      5     28
    94     94     12     11     40
    95     95     17     16     49
    96     96     11     10     37
    97     97     10      9     36
    98     98     19      1     20
    99     99     14     13     44

Dihedrals

     1      1      4      3      2      1 
     2      2      5      4      3      2 
     3      3      6      5      4      3 
     4      4      7      6      5      4 
     5      5      8      7      6      5 
     6      6      9      8      7      6 
     7      7     10      9      8      7 
     8      8     11     10      9      8 
     9      9     12     11     10      9 
    10     10     13     12     11     10 
    11     11     14     13     12     11 
    12     12     15     14     13     12 
    13     13     16     15     14     13 
    14     14     17     16     15     14 
    15     15     18      1      2      3 
    16     16     51     17     16     15 
    17     17     34      8      7      6 
    18     18     50     16     15     48 
    19     19     31      7      6      5 
    20     20     31      7      8      9 
    21     21     38     10      9      8 
    22     22     35      9     10     11 
    23     23     29      6      5      4 
    24     24     43     13     12     41 
    25     25     47     15     14     13 
    26     26     26      4      3     23 
    27     27     25      4      3     24 
    28     28     19      1      2      3 
    29     29     48     15     16     17 
    30     30     33      8      7      6 
    31     31     32      7      6     29 
    32     32     31      7      6     30 
    33     33     25      4      5      6 
    34     34     32      7      8      9 
    35     35     28      5      4      3 
    36     36     23      3      4      5 
    37     37     24      3      2     22 
    38     38     51     17     16     50 
    39     39     52     17     16     49 
    40     40     44     13     12     41 
    41     41     43     13     12     42 
    42     42     45     14     13     44 
    43     43     36      9      8      7 
    44     44     29      6      5     27 
    45     45     22      2      3      4 
    46     46     49     16     15     14 
    47     47     24      3      2     21 
    48     48     23      3      2     22 
    49     49     22      2      1     18 
    50     50     26      4      3      2 
    51     51     28      5      6      7 
    52     52     33      8      7     32 
    53     53     34      8      7     31 
    54     54     30      6      7      8 
    55     55     51     17     16     49 
    56     56     40     11     12     13 
    57     57     22      2      1     20 
    58     58     46     14     13     43 
    59     59     36      9     10     11 
    60     60     21      2      1     18 
    61     61     37     10      9     35 
    62     62     38     10      9     36 
    63     63     32      7      6     30 
    64     64     39     11     10     38 
    65     65     44     13     14     15 
    66     66     40     11     10     38 
    67     67     35      9      8      7 
    68     68     35      9      8     33 
    69     69     41     12     11     10 
    70     70     39     11     10      9 
    71     71     30      6      5      4 
    72     72     27      5      6      7 
    73     73     40     11     10     37 
    74     74     37     10      9      8 
    75     75     42     12     11     39 
    76     76     41     12     11     40 
    77     77     48     15     14     46 
    78     78     24      3      4      5 
    79     79     48     15     14     13 
    80     80     41     12     11     39 
    81     81     42     12     11     40 
    82     82     45     14     15     16 
    83     83     47     15     16     17 
    84     84     21      2      1     20 
    85     85     22      2      1     19 
    86     86     48     15     14     45 
    87     87     47     15     14     46 
    88     88     52     17     16     15 
    89     89     33      8      7     31 
    90     90     39     11     12     13 
    91     91     42     12     13     14 
    92     92     29      6      7      8 
    93     93     32      7      6      5 
    94     94     36      9      8     34 
    95     95     31      7      6     29 
    96     96     45     14     13     43 
    97     97     25      4      3     23 
    98     98     50     16     15     14 
    99     99     34      8      9     10 
   100    100     30      6      5     28 
   101    101     23      3      2      1 
   102    102     42     12     11     10 
   103    103     43     13     12     11 
   104    104     23      3      2     21 
   105    105     34      8      7     32 
   106    106     21      2      3      4 
   107    107     36      9      8     33 
   108    108     35      9      8     34 
   109    109     24      3      2      1 
   110    110     20      1      2      3 
   111    111     38     10      9     35 
   112    112     37     10      9     36 
   113    113     28      5      4     26 
   114    114     28      5      4     25 
   115    115     27      5      4     26 
   116    116     27      5      4     25 
   117    117     49     16     15     47 
   118    118     26      4      5      6 
   119    119     44     13     12     42 
   120    120     46     14     13     44 