#C8_amine

28 atoms
4 atom types

27 bonds
4 bond types

51 angles
6 angle types

69 dihedrals
6 dihedral types

17 impropers
1 improper types

-8.28548  41.71452  xlo xhi
0  50.11113  ylo yhi
-1.02712  48.97288  zlo zhi

Masses

1  12.011
2  14.007
3  1.008
4  1.008

Pair Coeffs

1  0.066  3.5
2  0.17  3.3
3  0.03  2.5
4  0.0  0.0

Bond Coeffs

1  268.0  1.529
2  382.0  1.448
3  340.0  1.09
4  434.0  1.01

Angle Coeffs

1  58.35  112.7
2  56.2  109.47
3  37.5  110.7
4  35.0  109.5
5  33.0  107.8
6  43.6  106.4

Dihedral Coeffs

1  1.3  -0.2  0.2  0.0
2  2.392  -0.674  0.55  0.0
3  0.0  0.0  0.3  0.0
4  -0.19  -0.417  0.418  0.0
5  0.0  0.0  0.4  0.0
6  -1.013  -0.709  0.473  0.0

Improper Coeffs

1  0.0  -1.0  2.0

Atoms # full

1  1  1  -0.2389   1   1   0
2  1  1  -0.1792  -0.52   1   0
3  1  1  -0.1782  -1.077   1   1.42327
4  1  1  -0.1789  -2.607   0.9982   1.42327
5  1  1  -0.178  -3.159   1.00001   2.84936
6  1  1  -0.1788  -4.689   1.00002   2.85429
7  1  1  -0.181  -5.238   1.00003   4.28225
8  1  1   0.0888  -6.766   1.00183   4.28553
9  1  2  -0.9275  -7.268   1.00354   5.65444
10  1  3   0.0809   1.378   1.0013  -1.02712
11  1  3   0.0809   1.391   0.11113   0.50526
12  1  3   0.0809   1.391   1.88759   0.50751
13  1  3   0.0882  -0.879   0.11669  -0.54097
14  1  3   0.0882  -0.879   1.88333  -0.54099
15  1  3   0.0897  -0.711   1.88352   1.96025
16  1  3   0.0897  -0.709   0.11789   1.96103
17  1  3   0.0891  -2.972   0.11334   0.88797
18  1  3   0.0891  -2.974   1.88021   0.885
19  1  3   0.0905  -2.79   1.88346   3.3844
20  1  3   0.0905  -2.79   0.11786   3.38667
21  1  3   0.0889  -5.057   0.11659   2.31869
22  1  3   0.0889  -5.057   1.88343   2.31869
23  1  3   0.0984  -4.865   1.88264   4.81678
24  1  3   0.0984  -4.865   0.11627   4.81545
25  1  3   0.0775  -7.146   0.11887   3.76038
26  1  3   0.0775  -7.142   1.89018   3.76687
27  1  4   0.3324  -6.945   0.16696   6.13898
28  1  4   0.3324  -8.285   0.95032   5.64095

Bonds

1  1  2  1
2  1  3  2
3  1  4  3
4  1  5  4
5  1  6  5
6  1  7  6
7  1  8  7
8  2  9  8
9  3  10  1
10  3  11  1
11  3  12  1
12  3  13  2
13  3  14  2
14  3  15  3
15  3  16  3
16  3  17  4
17  3  18  4
18  3  19  5
19  3  20  5
20  3  21  6
21  3  22  6
22  3  23  7
23  3  24  7
24  3  25  8
25  3  26  8
26  4  27  9
27  4  28  9

Angles

1  1  1  2  3
2  1  2  3  4
3  1  3  4  5
4  1  4  5  6
5  1  5  6  7
6  1  6  7  8
7  2  7  8  9
8  3  2  1  10
9  3  2  1  11
10  3  2  1  12
11  3  1  2  13
12  3  1  2  14
13  3  2  3  15
14  3  2  3  16
15  3  3  4  17
16  3  3  4  18
17  3  4  5  19
18  3  4  5  20
19  3  5  6  21
20  3  5  6  22
21  3  6  7  23
22  3  6  7  24
23  3  7  8  25
24  3  7  8  26
25  4  8  9  27
26  4  8  9  28
27  5  23  7  24
28  4  9  8  25
29  3  3  2  14
30  5  13  2  14
31  5  21  6  22
32  3  6  5  19
33  5  17  4  18
34  5  25  8  26
35  5  15  3  16
36  3  8  7  23
37  5  19  5  20
38  5  11  1  12
39  3  6  5  20
40  6  27  9  28
41  5  10  1  12
42  5  10  1  11
43  3  3  2  13
44  4  9  8  26
45  3  4  3  16
46  3  8  7  24
47  3  5  4  18
48  3  7  6  22
49  3  7  6  21
50  3  4  3  15
51  3  5  4  17

Dihedrals

1  1  4  3  2  1
2  1  5  4  3  2
3  1  6  5  4  3
4  1  7  6  5  4
5  1  8  7  6  5
6  2  9  8  7  6
7  3  10  1  2  3
8  4  27  9  8  7
9  3  18  4  3  16
10  3  15  3  4  5
11  5  27  9  8  25
12  3  17  4  3  2
13  3  15  3  2  1
14  3  18  4  3  2
15  3  21  6  5  4
16  3  20  5  4  17
17  3  26  8  7  6
18  3  11  1  2  3
19  3  18  4  3  15
20  6  23  7  8  9
21  3  25  8  7  23
22  3  15  3  2  14
23  3  17  4  5  6
24  3  22  6  5  4
25  3  15  3  2  13
26  3  21  6  5  20
27  3  20  5  4  3
28  3  22  6  5  19
29  3  19  5  4  18
30  3  16  3  2  13
31  5  28  9  8  25
32  3  24  7  6  22
33  3  17  4  3  15
34  3  18  4  5  6
35  3  13  2  1  12
36  3  14  2  1  11
37  3  21  6  5  19
38  3  12  1  2  3
39  3  20  5  4  18
40  3  19  5  4  17
41  3  16  3  4  5
42  3  19  5  6  7
43  3  26  8  7  24
44  3  20  5  6  7
45  3  19  5  4  3
46  3  13  2  1  11
47  3  14  2  1  10
48  3  23  7  6  5
49  6  24  7  8  9
50  3  16  3  2  1
51  3  14  2  3  4
52  4  28  9  8  7
53  3  13  2  3  4
54  3  16  3  2  14
55  3  22  6  7  8
56  5  27  9  8  26
57  5  28  9  8  26
58  3  25  8  7  6
59  3  13  2  1  10
60  3  23  7  6  21
61  3  22  6  5  20
62  3  17  4  3  16
63  3  24  7  6  21
64  3  23  7  6  22
65  3  14  2  1  12
66  3  21  6  7  8
67  3  24  7  6  5
68  3  25  8  7  24
69  3  26  8  7  23

Impropers

1  1  1  2  11  10
2  1  1  2  12  10
3  1  2  1  3  13
4  1  2  1  3  14
5  1  3  2  4  15
6  1  3  2  4  16
7  1  4  17  3  5
8  1  4  18  3  5
9  1  5  19  4  6
10  1  5  4  20  6
11  1  6  5  21  7
12  1  6  5  22  7
13  1  7  8  23  6
14  1  7  8  6  24
15  1  8  25  9  7
16  1  8  9  26  7
17  1  9  27  28  8
