LAMMPS data file Created by LigParGen - (Written by Leela S. Dodda)

      28 atoms
      27 bonds
      51 angles
      69 dihedrals
      17 impropers
 
      28 atom types
      27 bond types
      51 angle types
      69 dihedral types
      17 improper types
 
   -8.285480    41.714520 xlo xhi
    0.111130    50.111130 ylo yhi
   -1.027120    48.972880 zlo zhi

Masses

       1     12.011  
       2     12.011  
       3     12.011  
       4     12.011  
       5     12.011  
       6     12.011  
       7     12.011  
       8     12.011  
       9     14.007  
      10      1.008  
      11      1.008  
      12      1.008  
      13      1.008  
      14      1.008  
      15      1.008  
      16      1.008  
      17      1.008  
      18      1.008  
      19      1.008  
      20      1.008  
      21      1.008  
      22      1.008  
      23      1.008  
      24      1.008  
      25      1.008  
      26      1.008  
      27      1.008  
      28      1.008  

Pair Coeffs 

       1      0.066  3.5000000 
       2      0.066  3.5000000 
       3      0.066  3.5000000 
       4      0.066  3.5000000 
       5      0.066  3.5000000 
       6      0.066  3.5000000 
       7      0.066  3.5000000 
       8      0.066  3.5000000 
       9      0.170  3.3000000 
      10      0.030  2.5000000 
      11      0.030  2.5000000 
      12      0.030  2.5000000 
      13      0.030  2.5000000 
      14      0.030  2.5000000 
      15      0.030  2.5000000 
      16      0.030  2.5000000 
      17      0.030  2.5000000 
      18      0.030  2.5000000 
      19      0.030  2.5000000 
      20      0.030  2.5000000 
      21      0.030  2.5000000 
      22      0.030  2.5000000 
      23      0.030  2.5000000 
      24      0.030  2.5000000 
      25      0.030  2.5000000 
      26      0.030  2.5000000 
      27      0.000  0.0000000 
      28      0.000  0.0000000 

Bond Coeffs 

       1   268.0000     1.5290 
       2   268.0000     1.5290 
       3   268.0000     1.5290 
       4   268.0000     1.5290 
       5   268.0000     1.5290 
       6   268.0000     1.5290 
       7   268.0000     1.5290 
       8   382.0000     1.4480 
       9   340.0000     1.0900 
      10   340.0000     1.0900 
      11   340.0000     1.0900 
      12   340.0000     1.0900 
      13   340.0000     1.0900 
      14   340.0000     1.0900 
      15   340.0000     1.0900 
      16   340.0000     1.0900 
      17   340.0000     1.0900 
      18   340.0000     1.0900 
      19   340.0000     1.0900 
      20   340.0000     1.0900 
      21   340.0000     1.0900 
      22   340.0000     1.0900 
      23   340.0000     1.0900 
      24   340.0000     1.0900 
      25   340.0000     1.0900 
      26   434.0000     1.0100 
      27   434.0000     1.0100 

Angle Coeffs 

       1     58.350    112.700
       2     58.350    112.700
       3     58.350    112.700
       4     58.350    112.700
       5     58.350    112.700
       6     58.350    112.700
       7     56.200    109.470
       8     37.500    110.700
       9     37.500    110.700
      10     37.500    110.700
      11     37.500    110.700
      12     37.500    110.700
      13     37.500    110.700
      14     37.500    110.700
      15     37.500    110.700
      16     37.500    110.700
      17     37.500    110.700
      18     37.500    110.700
      19     37.500    110.700
      20     37.500    110.700
      21     37.500    110.700
      22     37.500    110.700
      23     37.500    110.700
      24     37.500    110.700
      25     35.000    109.500
      26     35.000    109.500
      27     33.000    107.800
      28     35.000    109.500
      29     37.500    110.700
      30     33.000    107.800
      31     33.000    107.800
      32     37.500    110.700
      33     33.000    107.800
      34     33.000    107.800
      35     33.000    107.800
      36     37.500    110.700
      37     33.000    107.800
      38     33.000    107.800
      39     37.500    110.700
      40     43.600    106.400
      41     33.000    107.800
      42     33.000    107.800
      43     37.500    110.700
      44     35.000    109.500
      45     37.500    110.700
      46     37.500    110.700
      47     37.500    110.700
      48     37.500    110.700
      49     37.500    110.700
      50     37.500    110.700
      51     37.500    110.700

Dihedral Coeffs  

       1      1.300     -0.200      0.200      0.000 
       2      1.300     -0.200      0.200      0.000 
       3      1.300     -0.200      0.200      0.000 
       4      1.300     -0.200      0.200      0.000 
       5      1.300     -0.200      0.200      0.000 
       6      2.392     -0.674      0.550      0.000 
       7      0.000      0.000      0.300      0.000 
       8     -0.190     -0.417      0.418      0.000 
       9      0.000      0.000      0.300      0.000 
      10      0.000      0.000      0.300      0.000 
      11      0.000      0.000      0.400      0.000 
      12      0.000      0.000      0.300      0.000 
      13      0.000      0.000      0.300      0.000 
      14      0.000      0.000      0.300      0.000 
      15      0.000      0.000      0.300      0.000 
      16      0.000      0.000      0.300      0.000 
      17      0.000      0.000      0.300      0.000 
      18      0.000      0.000      0.300      0.000 
      19      0.000      0.000      0.300      0.000 
      20     -1.013     -0.709      0.473      0.000 
      21      0.000      0.000      0.300      0.000 
      22      0.000      0.000      0.300      0.000 
      23      0.000      0.000      0.300      0.000 
      24      0.000      0.000      0.300      0.000 
      25      0.000      0.000      0.300      0.000 
      26      0.000      0.000      0.300      0.000 
      27      0.000      0.000      0.300      0.000 
      28      0.000      0.000      0.300      0.000 
      29      0.000      0.000      0.300      0.000 
      30      0.000      0.000      0.300      0.000 
      31      0.000      0.000      0.400      0.000 
      32      0.000      0.000      0.300      0.000 
      33      0.000      0.000      0.300      0.000 
      34      0.000      0.000      0.300      0.000 
      35      0.000      0.000      0.300      0.000 
      36      0.000      0.000      0.300      0.000 
      37      0.000      0.000      0.300      0.000 
      38      0.000      0.000      0.300      0.000 
      39      0.000      0.000      0.300      0.000 
      40      0.000      0.000      0.300      0.000 
      41      0.000      0.000      0.300      0.000 
      42      0.000      0.000      0.300      0.000 
      43      0.000      0.000      0.300      0.000 
      44      0.000      0.000      0.300      0.000 
      45      0.000      0.000      0.300      0.000 
      46      0.000      0.000      0.300      0.000 
      47      0.000      0.000      0.300      0.000 
      48      0.000      0.000      0.300      0.000 
      49     -1.013     -0.709      0.473      0.000 
      50      0.000      0.000      0.300      0.000 
      51      0.000      0.000      0.300      0.000 
      52     -0.190     -0.417      0.418      0.000 
      53      0.000      0.000      0.300      0.000 
      54      0.000      0.000      0.300      0.000 
      55      0.000      0.000      0.300      0.000 
      56      0.000      0.000      0.400      0.000 
      57      0.000      0.000      0.400      0.000 
      58      0.000      0.000      0.300      0.000 
      59      0.000      0.000      0.300      0.000 
      60      0.000      0.000      0.300      0.000 
      61      0.000      0.000      0.300      0.000 
      62      0.000      0.000      0.300      0.000 
      63      0.000      0.000      0.300      0.000 
      64      0.000      0.000      0.300      0.000 
      65      0.000      0.000      0.300      0.000 
      66      0.000      0.000      0.300      0.000 
      67      0.000      0.000      0.300      0.000 
      68      0.000      0.000      0.300      0.000 
      69      0.000      0.000      0.300      0.000 

Improper Coeffs 

       1      0.000      -1       2 
       2      0.000      -1       2 
       3      0.000      -1       2 
       4      0.000      -1       2 
       5      0.000      -1       2 
       6      0.000      -1       2 
       7      0.000      -1       2 
       8      0.000      -1       2 
       9      0.000      -1       2 
      10      0.000      -1       2 
      11      0.000      -1       2 
      12      0.000      -1       2 
      13      0.000      -1       2 
      14      0.000      -1       2 
      15      0.000      -1       2 
      16      0.000      -1       2 
      17      0.000      -1       2 

Atoms 

     1      1      1 -0.23890000    1.000  1.00000  0.00000
     2      1      2 -0.17920000   -0.520  1.00000  0.00000
     3      1      3 -0.17820000   -1.077  1.00000  1.42327
     4      1      4 -0.17890000   -2.607  0.99820  1.42327
     5      1      5 -0.17800000   -3.159  1.00001  2.84936
     6      1      6 -0.17880000   -4.689  1.00002  2.85429
     7      1      7 -0.18100000   -5.238  1.00003  4.28225
     8      1      8 0.08880000   -6.766  1.00183  4.28553
     9      1      9 -0.92750000   -7.268  1.00354  5.65444
    10      1     10 0.08090000    1.378  1.00130 -1.02712
    11      1     11 0.08090000    1.391  0.11113  0.50526
    12      1     12 0.08090000    1.391  1.88759  0.50751
    13      1     13 0.08820000   -0.879  0.11669 -0.54097
    14      1     14 0.08820000   -0.879  1.88333 -0.54099
    15      1     15 0.08970000   -0.711  1.88352  1.96025
    16      1     16 0.08970000   -0.709  0.11789  1.96103
    17      1     17 0.08910000   -2.972  0.11334  0.88797
    18      1     18 0.08910000   -2.974  1.88021  0.88500
    19      1     19 0.09050000   -2.790  1.88346  3.38440
    20      1     20 0.09050000   -2.790  0.11786  3.38667
    21      1     21 0.08890000   -5.057  0.11659  2.31869
    22      1     22 0.08890000   -5.057  1.88343  2.31869
    23      1     23 0.09840000   -4.865  1.88264  4.81678
    24      1     24 0.09840000   -4.865  0.11627  4.81545
    25      1     25 0.07750000   -7.146  0.11887  3.76038
    26      1     26 0.07750000   -7.142  1.89018  3.76687
    27      1     27 0.33240000   -6.945  0.16696  6.13898
    28      1     28 0.33240000   -8.285  0.95032  5.64095

Bonds 

     1      1      2      1
     2      2      3      2
     3      3      4      3
     4      4      5      4
     5      5      6      5
     6      6      7      6
     7      7      8      7
     8      8      9      8
     9      9     10      1
    10     10     11      1
    11     11     12      1
    12     12     13      2
    13     13     14      2
    14     14     15      3
    15     15     16      3
    16     16     17      4
    17     17     18      4
    18     18     19      5
    19     19     20      5
    20     20     21      6
    21     21     22      6
    22     22     23      7
    23     23     24      7
    24     24     25      8
    25     25     26      8
    26     26     27      9
    27     27     28      9

Angles 

     1      1      1      2      3
     2      2      2      3      4
     3      3      3      4      5
     4      4      4      5      6
     5      5      5      6      7
     6      6      6      7      8
     7      7      7      8      9
     8      8      2      1     10
     9      9      2      1     11
    10     10      2      1     12
    11     11      1      2     13
    12     12      1      2     14
    13     13      2      3     15
    14     14      2      3     16
    15     15      3      4     17
    16     16      3      4     18
    17     17      4      5     19
    18     18      4      5     20
    19     19      5      6     21
    20     20      5      6     22
    21     21      6      7     23
    22     22      6      7     24
    23     23      7      8     25
    24     24      7      8     26
    25     25      8      9     27
    26     26      8      9     28
    27     27     23      7     24
    28     28      9      8     25
    29     29      3      2     14
    30     30     13      2     14
    31     31     21      6     22
    32     32      6      5     19
    33     33     17      4     18
    34     34     25      8     26
    35     35     15      3     16
    36     36      8      7     23
    37     37     19      5     20
    38     38     11      1     12
    39     39      6      5     20
    40     40     27      9     28
    41     41     10      1     12
    42     42     10      1     11
    43     43      3      2     13
    44     44      9      8     26
    45     45      4      3     16
    46     46      8      7     24
    47     47      5      4     18
    48     48      7      6     22
    49     49      7      6     21
    50     50      4      3     15
    51     51      5      4     17

Dihedrals

     1      1      4      3      2      1 
     2      2      5      4      3      2 
     3      3      6      5      4      3 
     4      4      7      6      5      4 
     5      5      8      7      6      5 
     6      6      9      8      7      6 
     7      7     10      1      2      3 
     8      8     27      9      8      7 
     9      9     18      4      3     16 
    10     10     15      3      4      5 
    11     11     27      9      8     25 
    12     12     17      4      3      2 
    13     13     15      3      2      1 
    14     14     18      4      3      2 
    15     15     21      6      5      4 
    16     16     20      5      4     17 
    17     17     26      8      7      6 
    18     18     11      1      2      3 
    19     19     18      4      3     15 
    20     20     23      7      8      9 
    21     21     25      8      7     23 
    22     22     15      3      2     14 
    23     23     17      4      5      6 
    24     24     22      6      5      4 
    25     25     15      3      2     13 
    26     26     21      6      5     20 
    27     27     20      5      4      3 
    28     28     22      6      5     19 
    29     29     19      5      4     18 
    30     30     16      3      2     13 
    31     31     28      9      8     25 
    32     32     24      7      6     22 
    33     33     17      4      3     15 
    34     34     18      4      5      6 
    35     35     13      2      1     12 
    36     36     14      2      1     11 
    37     37     21      6      5     19 
    38     38     12      1      2      3 
    39     39     20      5      4     18 
    40     40     19      5      4     17 
    41     41     16      3      4      5 
    42     42     19      5      6      7 
    43     43     26      8      7     24 
    44     44     20      5      6      7 
    45     45     19      5      4      3 
    46     46     13      2      1     11 
    47     47     14      2      1     10 
    48     48     23      7      6      5 
    49     49     24      7      8      9 
    50     50     16      3      2      1 
    51     51     14      2      3      4 
    52     52     28      9      8      7 
    53     53     13      2      3      4 
    54     54     16      3      2     14 
    55     55     22      6      7      8 
    56     56     27      9      8     26 
    57     57     28      9      8     26 
    58     58     25      8      7      6 
    59     59     13      2      1     10 
    60     60     23      7      6     21 
    61     61     22      6      5     20 
    62     62     17      4      3     16 
    63     63     24      7      6     21 
    64     64     23      7      6     22 
    65     65     14      2      1     12 
    66     66     21      6      7      8 
    67     67     24      7      6      5 
    68     68     25      8      7     24 
    69     69     26      8      7     23 

Impropers

     1      1      1      2     11     10 
     2      2      1      2     12     10 
     3      3      2      1      3     13 
     4      4      2      1      3     14 
     5      5      3      2      4     15 
     6      6      3      2      4     16 
     7      7      4     17      3      5 
     8      8      4     18      3      5 
     9      9      5     19      4      6 
    10     10      5      4     20      6 
    11     11      6      5     21      7 
    12     12      6      5     22      7 
    13     13      7      8     23      6 
    14     14      7      8      6     24 
    15     15      8     25      9      7 
    16     16      8      9     26      7 
    17     17      9     27     28      8 

