#C8_anion

26 atoms
3 atom types

25 bonds
3 bond types

48 angles
5 angle types

63 dihedrals
4 dihedral types

16 impropers
1 improper types

-7.39571  42.60429  xlo xhi
0  50.11031  ylo yhi
-1.02719  48.97281  zlo zhi

Masses

1  12.011
2  32.06
3  1.008

Pair Coeffs

1  0.066  3.5
2  0.355  3.55
3  0.03  2.5

Bond Coeffs

1  268.0  1.529
2  340.0  1.77
3  340.0  1.09

Angle Coeffs

1  58.35  112.7
2  50.0  108.6
3  37.5  110.7
4  33.0  107.8
5  35.0  109.5

Dihedral Coeffs

1  1.3  -0.2  0.2  0.0
2  1.262  -0.198  0.465  0.0
3  0.0  0.0  0.3  0.0
4  0.0  0.0  0.452  0.0

Improper Coeffs

1  0.0  -1.0  2.0

Atoms # full

1  1  1  -0.2082   1   1   0
2  1  1  -0.158  -0.52   1   0
3  1  1  -0.157  -1.079   1   1.42276
4  1  1  -0.158  -2.608   0.9982   1.42112
5  1  1  -0.1565  -3.164   1.00001   2.84611
6  1  1  -0.1682  -4.693   0.99641   2.84611
7  1  1  -0.1508  -5.249   1.00003   4.27471
8  1  1  -0.0859  -6.783   0.99458   4.26814
9  1  2  -0.8982  -7.396   1.00135   5.99491
10  1  3   0.0657   1.378   1.0013  -1.02719
11  1  3   0.0657   1.391   0.11115   0.50525
12  1  3   0.0657   1.391   1.88762   0.50752
13  1  3   0.0744  -0.879   0.11667  -0.54098
14  1  3   0.0744  -0.879   1.88333  -0.54098
15  1  3   0.076  -0.713   1.88354   1.96014
16  1  3   0.076  -0.711   0.11787   1.96092
17  1  3   0.0727  -2.973   0.11343   0.88547
18  1  3   0.0727  -2.975   1.88028   0.88241
19  1  3   0.0742  -2.798   1.88485   3.38115
20  1  3   0.0742  -2.794   0.11921   3.38503
21  1  3   0.064  -5.058   0.11031   2.3124
22  1  3   0.064  -5.062   1.8771   2.3063
23  1  3   0.0785  -4.871   1.8872   4.80035
24  1  3   0.0785  -4.864   0.11968   4.80725
25  1  3   0.032  -7.13   0.11501   3.71202
26  1  3   0.032  -7.136   1.86592   3.70294

Bonds

1  1  2  1
2  1  3  2
3  1  4  3
4  1  5  4
5  1  6  5
6  1  7  6
7  1  8  7
8  2  9  8
9  3  10  1
10  3  11  1
11  3  12  1
12  3  13  2
13  3  14  2
14  3  15  3
15  3  16  3
16  3  17  4
17  3  18  4
18  3  19  5
19  3  20  5
20  3  21  6
21  3  22  6
22  3  23  7
23  3  24  7
24  3  25  8
25  3  26  8

Angles

1  1  1  2  3
2  1  2  3  4
3  1  3  4  5
4  1  4  5  6
5  1  5  6  7
6  1  6  7  8
7  2  7  8  9
8  3  2  1  10
9  3  2  1  11
10  3  2  1  12
11  3  1  2  13
12  3  1  2  14
13  3  2  3  15
14  3  2  3  16
15  3  3  4  17
16  3  3  4  18
17  3  4  5  19
18  3  4  5  20
19  3  5  6  21
20  3  5  6  22
21  3  6  7  23
22  3  6  7  24
23  3  7  8  25
24  3  7  8  26
25  4  23  7  24
26  5  9  8  25
27  3  3  2  14
28  4  13  2  14
29  4  21  6  22
30  3  6  5  19
31  4  17  4  18
32  4  25  8  26
33  4  15  3  16
34  3  8  7  23
35  4  19  5  20
36  4  11  1  12
37  3  6  5  20
38  4  10  1  12
39  4  10  1  11
40  3  3  2  13
41  5  9  8  26
42  3  4  3  16
43  3  8  7  24
44  3  5  4  18
45  3  7  6  22
46  3  7  6  21
47  3  4  3  15
48  3  5  4  17

Dihedrals

1  1  4  3  2  1
2  1  5  4  3  2
3  1  6  5  4  3
4  1  7  6  5  4
5  1  8  7  6  5
6  2  9  8  7  6
7  3  10  1  2  3
8  3  18  4  3  16
9  3  15  3  4  5
10  3  17  4  3  2
11  3  15  3  2  1
12  3  18  4  3  2
13  3  21  6  5  4
14  3  20  5  4  17
15  3  26  8  7  6
16  3  11  1  2  3
17  3  18  4  3  15
18  4  23  7  8  9
19  3  25  8  7  23
20  3  15  3  2  14
21  3  17  4  5  6
22  3  22  6  5  4
23  3  15  3  2  13
24  3  21  6  5  20
25  3  20  5  4  3
26  3  22  6  5  19
27  3  19  5  4  18
28  3  16  3  2  13
29  3  24  7  6  22
30  3  17  4  3  15
31  3  18  4  5  6
32  3  13  2  1  12
33  3  14  2  1  11
34  3  21  6  5  19
35  3  12  1  2  3
36  3  20  5  4  18
37  3  19  5  4  17
38  3  16  3  4  5
39  3  19  5  6  7
40  3  26  8  7  24
41  3  20  5  6  7
42  3  19  5  4  3
43  3  13  2  1  11
44  3  14  2  1  10
45  3  23  7  6  5
46  4  24  7  8  9
47  3  16  3  2  1
48  3  14  2  3  4
49  3  13  2  3  4
50  3  16  3  2  14
51  3  22  6  7  8
52  3  25  8  7  6
53  3  13  2  1  10
54  3  23  7  6  21
55  3  22  6  5  20
56  3  17  4  3  16
57  3  24  7  6  21
58  3  23  7  6  22
59  3  14  2  1  12
60  3  21  6  7  8
61  3  24  7  6  5
62  3  25  8  7  24
63  3  26  8  7  23

Impropers

1  1  1  2  11  10
2  1  1  2  12  10
3  1  2  1  3  13
4  1  2  1  3  14
5  1  3  2  4  15
6  1  3  2  4  16
7  1  4  17  3  5
8  1  4  18  3  5
9  1  5  19  4  6
10  1  5  4  20  6
11  1  6  5  21  7
12  1  6  5  22  7
13  1  7  8  23  6
14  1  7  8  6  24
15  1  8  25  9  7
16  1  8  9  26  7
