LAMMPS data file Created by LigParGen - (Written by Leela S. Dodda)

      26 atoms
      25 bonds
      48 angles
      63 dihedrals
      16 impropers
 
      26 atom types
      25 bond types
      48 angle types
      63 dihedral types
      16 improper types
 
   -7.395710    42.604290 xlo xhi
    0.110310    50.110310 ylo yhi
   -1.027190    48.972810 zlo zhi

Masses

       1     12.011  
       2     12.011  
       3     12.011  
       4     12.011  
       5     12.011  
       6     12.011  
       7     12.011  
       8     12.011  
       9     32.060  
      10      1.008  
      11      1.008  
      12      1.008  
      13      1.008  
      14      1.008  
      15      1.008  
      16      1.008  
      17      1.008  
      18      1.008  
      19      1.008  
      20      1.008  
      21      1.008  
      22      1.008  
      23      1.008  
      24      1.008  
      25      1.008  
      26      1.008  

Pair Coeffs 

       1      0.066  3.5000000 
       2      0.066  3.5000000 
       3      0.066  3.5000000 
       4      0.066  3.5000000 
       5      0.066  3.5000000 
       6      0.066  3.5000000 
       7      0.066  3.5000000 
       8      0.066  3.5000000 
       9      0.355  3.5500000 
      10      0.030  2.5000000 
      11      0.030  2.5000000 
      12      0.030  2.5000000 
      13      0.030  2.5000000 
      14      0.030  2.5000000 
      15      0.030  2.5000000 
      16      0.030  2.5000000 
      17      0.030  2.5000000 
      18      0.030  2.5000000 
      19      0.030  2.5000000 
      20      0.030  2.5000000 
      21      0.030  2.5000000 
      22      0.030  2.5000000 
      23      0.030  2.5000000 
      24      0.030  2.5000000 
      25      0.030  2.5000000 
      26      0.030  2.5000000 

Bond Coeffs 

       1   268.0000     1.5290 
       2   268.0000     1.5290 
       3   268.0000     1.5290 
       4   268.0000     1.5290 
       5   268.0000     1.5290 
       6   268.0000     1.5290 
       7   268.0000     1.5290 
       8   340.0000     1.7700 
       9   340.0000     1.0900 
      10   340.0000     1.0900 
      11   340.0000     1.0900 
      12   340.0000     1.0900 
      13   340.0000     1.0900 
      14   340.0000     1.0900 
      15   340.0000     1.0900 
      16   340.0000     1.0900 
      17   340.0000     1.0900 
      18   340.0000     1.0900 
      19   340.0000     1.0900 
      20   340.0000     1.0900 
      21   340.0000     1.0900 
      22   340.0000     1.0900 
      23   340.0000     1.0900 
      24   340.0000     1.0900 
      25   340.0000     1.0900 

Angle Coeffs 

       1     58.350    112.700
       2     58.350    112.700
       3     58.350    112.700
       4     58.350    112.700
       5     58.350    112.700
       6     58.350    112.700
       7     50.000    108.600
       8     37.500    110.700
       9     37.500    110.700
      10     37.500    110.700
      11     37.500    110.700
      12     37.500    110.700
      13     37.500    110.700
      14     37.500    110.700
      15     37.500    110.700
      16     37.500    110.700
      17     37.500    110.700
      18     37.500    110.700
      19     37.500    110.700
      20     37.500    110.700
      21     37.500    110.700
      22     37.500    110.700
      23     37.500    110.700
      24     37.500    110.700
      25     33.000    107.800
      26     35.000    109.500
      27     37.500    110.700
      28     33.000    107.800
      29     33.000    107.800
      30     37.500    110.700
      31     33.000    107.800
      32     33.000    107.800
      33     33.000    107.800
      34     37.500    110.700
      35     33.000    107.800
      36     33.000    107.800
      37     37.500    110.700
      38     33.000    107.800
      39     33.000    107.800
      40     37.500    110.700
      41     35.000    109.500
      42     37.500    110.700
      43     37.500    110.700
      44     37.500    110.700
      45     37.500    110.700
      46     37.500    110.700
      47     37.500    110.700
      48     37.500    110.700

Dihedral Coeffs  

       1      1.300     -0.200      0.200      0.000 
       2      1.300     -0.200      0.200      0.000 
       3      1.300     -0.200      0.200      0.000 
       4      1.300     -0.200      0.200      0.000 
       5      1.300     -0.200      0.200      0.000 
       6      1.262     -0.198      0.465      0.000 
       7      0.000      0.000      0.300      0.000 
       8      0.000      0.000      0.300      0.000 
       9      0.000      0.000      0.300      0.000 
      10      0.000      0.000      0.300      0.000 
      11      0.000      0.000      0.300      0.000 
      12      0.000      0.000      0.300      0.000 
      13      0.000      0.000      0.300      0.000 
      14      0.000      0.000      0.300      0.000 
      15      0.000      0.000      0.300      0.000 
      16      0.000      0.000      0.300      0.000 
      17      0.000      0.000      0.300      0.000 
      18      0.000      0.000      0.452      0.000 
      19      0.000      0.000      0.300      0.000 
      20      0.000      0.000      0.300      0.000 
      21      0.000      0.000      0.300      0.000 
      22      0.000      0.000      0.300      0.000 
      23      0.000      0.000      0.300      0.000 
      24      0.000      0.000      0.300      0.000 
      25      0.000      0.000      0.300      0.000 
      26      0.000      0.000      0.300      0.000 
      27      0.000      0.000      0.300      0.000 
      28      0.000      0.000      0.300      0.000 
      29      0.000      0.000      0.300      0.000 
      30      0.000      0.000      0.300      0.000 
      31      0.000      0.000      0.300      0.000 
      32      0.000      0.000      0.300      0.000 
      33      0.000      0.000      0.300      0.000 
      34      0.000      0.000      0.300      0.000 
      35      0.000      0.000      0.300      0.000 
      36      0.000      0.000      0.300      0.000 
      37      0.000      0.000      0.300      0.000 
      38      0.000      0.000      0.300      0.000 
      39      0.000      0.000      0.300      0.000 
      40      0.000      0.000      0.300      0.000 
      41      0.000      0.000      0.300      0.000 
      42      0.000      0.000      0.300      0.000 
      43      0.000      0.000      0.300      0.000 
      44      0.000      0.000      0.300      0.000 
      45      0.000      0.000      0.300      0.000 
      46      0.000      0.000      0.452      0.000 
      47      0.000      0.000      0.300      0.000 
      48      0.000      0.000      0.300      0.000 
      49      0.000      0.000      0.300      0.000 
      50      0.000      0.000      0.300      0.000 
      51      0.000      0.000      0.300      0.000 
      52      0.000      0.000      0.300      0.000 
      53      0.000      0.000      0.300      0.000 
      54      0.000      0.000      0.300      0.000 
      55      0.000      0.000      0.300      0.000 
      56      0.000      0.000      0.300      0.000 
      57      0.000      0.000      0.300      0.000 
      58      0.000      0.000      0.300      0.000 
      59      0.000      0.000      0.300      0.000 
      60      0.000      0.000      0.300      0.000 
      61      0.000      0.000      0.300      0.000 
      62      0.000      0.000      0.300      0.000 
      63      0.000      0.000      0.300      0.000 

Improper Coeffs 

       1      0.000      -1       2 
       2      0.000      -1       2 
       3      0.000      -1       2 
       4      0.000      -1       2 
       5      0.000      -1       2 
       6      0.000      -1       2 
       7      0.000      -1       2 
       8      0.000      -1       2 
       9      0.000      -1       2 
      10      0.000      -1       2 
      11      0.000      -1       2 
      12      0.000      -1       2 
      13      0.000      -1       2 
      14      0.000      -1       2 
      15      0.000      -1       2 
      16      0.000      -1       2 

Atoms 

     1      1      1 -0.20820000    1.000  1.00000  0.00000
     2      1      2 -0.15800000   -0.520  1.00000  0.00000
     3      1      3 -0.15700000   -1.079  1.00000  1.42276
     4      1      4 -0.15800000   -2.608  0.99820  1.42112
     5      1      5 -0.15650000   -3.164  1.00001  2.84611
     6      1      6 -0.16820000   -4.693  0.99641  2.84611
     7      1      7 -0.15080000   -5.249  1.00003  4.27471
     8      1      8 -0.08590000   -6.783  0.99458  4.26814
     9      1      9 -0.89820000   -7.396  1.00135  5.99491
    10      1     10 0.06570000    1.378  1.00130 -1.02719
    11      1     11 0.06570000    1.391  0.11115  0.50525
    12      1     12 0.06570000    1.391  1.88762  0.50752
    13      1     13 0.07440000   -0.879  0.11667 -0.54098
    14      1     14 0.07440000   -0.879  1.88333 -0.54098
    15      1     15 0.07600000   -0.713  1.88354  1.96014
    16      1     16 0.07600000   -0.711  0.11787  1.96092
    17      1     17 0.07270000   -2.973  0.11343  0.88547
    18      1     18 0.07270000   -2.975  1.88028  0.88241
    19      1     19 0.07420000   -2.798  1.88485  3.38115
    20      1     20 0.07420000   -2.794  0.11921  3.38503
    21      1     21 0.06400000   -5.058  0.11031  2.31240
    22      1     22 0.06400000   -5.062  1.87710  2.30630
    23      1     23 0.07850000   -4.871  1.88720  4.80035
    24      1     24 0.07850000   -4.864  0.11968  4.80725
    25      1     25 0.03200000   -7.130  0.11501  3.71202
    26      1     26 0.03200000   -7.136  1.86592  3.70294

Bonds 

     1      1      2      1
     2      2      3      2
     3      3      4      3
     4      4      5      4
     5      5      6      5
     6      6      7      6
     7      7      8      7
     8      8      9      8
     9      9     10      1
    10     10     11      1
    11     11     12      1
    12     12     13      2
    13     13     14      2
    14     14     15      3
    15     15     16      3
    16     16     17      4
    17     17     18      4
    18     18     19      5
    19     19     20      5
    20     20     21      6
    21     21     22      6
    22     22     23      7
    23     23     24      7
    24     24     25      8
    25     25     26      8

Angles 

     1      1      1      2      3
     2      2      2      3      4
     3      3      3      4      5
     4      4      4      5      6
     5      5      5      6      7
     6      6      6      7      8
     7      7      7      8      9
     8      8      2      1     10
     9      9      2      1     11
    10     10      2      1     12
    11     11      1      2     13
    12     12      1      2     14
    13     13      2      3     15
    14     14      2      3     16
    15     15      3      4     17
    16     16      3      4     18
    17     17      4      5     19
    18     18      4      5     20
    19     19      5      6     21
    20     20      5      6     22
    21     21      6      7     23
    22     22      6      7     24
    23     23      7      8     25
    24     24      7      8     26
    25     25     23      7     24
    26     26      9      8     25
    27     27      3      2     14
    28     28     13      2     14
    29     29     21      6     22
    30     30      6      5     19
    31     31     17      4     18
    32     32     25      8     26
    33     33     15      3     16
    34     34      8      7     23
    35     35     19      5     20
    36     36     11      1     12
    37     37      6      5     20
    38     38     10      1     12
    39     39     10      1     11
    40     40      3      2     13
    41     41      9      8     26
    42     42      4      3     16
    43     43      8      7     24
    44     44      5      4     18
    45     45      7      6     22
    46     46      7      6     21
    47     47      4      3     15
    48     48      5      4     17

Dihedrals

     1      1      4      3      2      1 
     2      2      5      4      3      2 
     3      3      6      5      4      3 
     4      4      7      6      5      4 
     5      5      8      7      6      5 
     6      6      9      8      7      6 
     7      7     10      1      2      3 
     8      8     18      4      3     16 
     9      9     15      3      4      5 
    10     10     17      4      3      2 
    11     11     15      3      2      1 
    12     12     18      4      3      2 
    13     13     21      6      5      4 
    14     14     20      5      4     17 
    15     15     26      8      7      6 
    16     16     11      1      2      3 
    17     17     18      4      3     15 
    18     18     23      7      8      9 
    19     19     25      8      7     23 
    20     20     15      3      2     14 
    21     21     17      4      5      6 
    22     22     22      6      5      4 
    23     23     15      3      2     13 
    24     24     21      6      5     20 
    25     25     20      5      4      3 
    26     26     22      6      5     19 
    27     27     19      5      4     18 
    28     28     16      3      2     13 
    29     29     24      7      6     22 
    30     30     17      4      3     15 
    31     31     18      4      5      6 
    32     32     13      2      1     12 
    33     33     14      2      1     11 
    34     34     21      6      5     19 
    35     35     12      1      2      3 
    36     36     20      5      4     18 
    37     37     19      5      4     17 
    38     38     16      3      4      5 
    39     39     19      5      6      7 
    40     40     26      8      7     24 
    41     41     20      5      6      7 
    42     42     19      5      4      3 
    43     43     13      2      1     11 
    44     44     14      2      1     10 
    45     45     23      7      6      5 
    46     46     24      7      8      9 
    47     47     16      3      2      1 
    48     48     14      2      3      4 
    49     49     13      2      3      4 
    50     50     16      3      2     14 
    51     51     22      6      7      8 
    52     52     25      8      7      6 
    53     53     13      2      1     10 
    54     54     23      7      6     21 
    55     55     22      6      5     20 
    56     56     17      4      3     16 
    57     57     24      7      6     21 
    58     58     23      7      6     22 
    59     59     14      2      1     12 
    60     60     21      6      7      8 
    61     61     24      7      6      5 
    62     62     25      8      7     24 
    63     63     26      8      7     23 

Impropers

     1      1      1      2     11     10 
     2      2      1      2     12     10 
     3      3      2      1      3     13 
     4      4      2      1      3     14 
     5      5      3      2      4     15 
     6      6      3      2      4     16 
     7      7      4     17      3      5 
     8      8      4     18      3      5 
     9      9      5     19      4      6 
    10     10      5      4     20      6 
    11     11      6      5     21      7 
    12     12      6      5     22      7 
    13     13      7      8     23      6 
    14     14      7      8      6     24 
    15     15      8     25      9      7 
    16     16      8      9     26      7 

