#C8_thiol

27 atoms
4 atom types

26 bonds
4 bond types

49 angles
6 angle types

66 dihedrals
6 dihedral types

16 impropers
1 improper types

-7.40303  42.59697  xlo xhi
-0.17302  49.82698  ylo yhi
-1.0272  48.9728  zlo zhi

Masses

1  12.011
2  32.06
3  1.008
4  1.008

Pair Coeffs

1  0.066  3.5
2  0.425  3.6
3  0.03  2.5
4  0.0  0.0

Bond Coeffs

1  268.0  1.529
2  222.0  1.81
3  340.0  1.09
4  274.0  1.336

Angle Coeffs

1  58.35  112.7
2  50.0  108.6
3  37.5  110.7
4  44.0  96.0
5  33.0  107.8
6  35.0  109.5

Dihedral Coeffs

1  1.3  -0.2  0.2  0.0
2  1.262  -0.198  0.465  0.0
3  0.0  0.0  0.3  0.0
4  -0.759  -0.282  0.68  0.0
5  0.0  0.0  0.48  0.0
6  0.0  0.0  0.452  0.0

Improper Coeffs

1  0.0  -1.0  2.0

Atoms # full

1  1  1  -0.239   1   1   0
2  1  1  -0.1792  -0.52   1   0
3  1  1  -0.1782  -1.077   1   1.42327
4  1  1  -0.1788  -2.607   0.9982   1.42327
5  1  1  -0.1783  -3.159   1.00001   2.84948
6  1  1  -0.1798  -4.689   0.99642   2.8544
7  1  1  -0.1837  -5.237   0.99644   4.28387
8  1  1   0.0127  -6.763   0.99105   4.28225
9  1  2  -0.4416  -7.403   0.99326   5.98167
10  1  3   0.0813   1.378   1.0013  -1.0272
11  1  3   0.0813   1.391   0.1112   0.50522
12  1  3   0.0813   1.391   1.88755   0.50748
13  1  3   0.0885  -0.879   0.1167  -0.54097
14  1  3   0.0885  -0.879   1.88335  -0.54099
15  1  3   0.0899  -0.711   1.8835   1.96023
16  1  3   0.0899  -0.709   0.11786   1.96105
17  1  3   0.0899  -2.972   0.11354   0.88808
18  1  3   0.0899  -2.974   1.88026   0.88497
19  1  3   0.0911  -2.792   1.88476   3.38368
20  1  3   0.0911  -2.788   0.11893   3.38662
21  1  3   0.0914  -5.055   0.11155   2.31957
22  1  3   0.0914  -5.059   1.87855   2.31796
23  1  3   0.1017  -4.864   1.88339   4.81161
24  1  3   0.1017  -4.858   0.11329   4.81307
25  1  3   0.1259  -7.145   0.10299   3.76855
26  1  3   0.1259  -7.15   1.87573   3.7668
27  1  4   0.1453  -6.856  -0.17302   6.35448

Bonds

1  1  2  1
2  1  3  2
3  1  4  3
4  1  5  4
5  1  6  5
6  1  7  6
7  1  8  7
8  2  9  8
9  3  10  1
10  3  11  1
11  3  12  1
12  3  13  2
13  3  14  2
14  3  15  3
15  3  16  3
16  3  17  4
17  3  18  4
18  3  19  5
19  3  20  5
20  3  21  6
21  3  22  6
22  3  23  7
23  3  24  7
24  3  25  8
25  3  26  8
26  4  27  9

Angles

1  1  1  2  3
2  1  2  3  4
3  1  3  4  5
4  1  4  5  6
5  1  5  6  7
6  1  6  7  8
7  2  7  8  9
8  3  2  1  10
9  3  2  1  11
10  3  2  1  12
11  3  1  2  13
12  3  1  2  14
13  3  2  3  15
14  3  2  3  16
15  3  3  4  17
16  3  3  4  18
17  3  4  5  19
18  3  4  5  20
19  3  5  6  21
20  3  5  6  22
21  3  6  7  23
22  3  6  7  24
23  3  7  8  25
24  3  7  8  26
25  4  8  9  27
26  5  23  7  24
27  6  9  8  25
28  3  3  2  14
29  5  13  2  14
30  5  21  6  22
31  3  6  5  19
32  5  17  4  18
33  5  25  8  26
34  5  15  3  16
35  3  8  7  23
36  5  19  5  20
37  5  11  1  12
38  3  6  5  20
39  5  10  1  12
40  5  10  1  11
41  3  3  2  13
42  6  9  8  26
43  3  4  3  16
44  3  8  7  24
45  3  5  4  18
46  3  7  6  22
47  3  7  6  21
48  3  4  3  15
49  3  5  4  17

Dihedrals

1  1  4  3  2  1
2  1  5  4  3  2
3  1  6  5  4  3
4  1  7  6  5  4
5  1  8  7  6  5
6  2  9  8  7  6
7  3  10  1  2  3
8  4  27  9  8  7
9  3  18  4  3  16
10  3  15  3  4  5
11  5  27  9  8  25
12  3  17  4  3  2
13  3  15  3  2  1
14  3  18  4  3  2
15  3  21  6  5  4
16  3  20  5  4  17
17  3  26  8  7  6
18  3  11  1  2  3
19  3  18  4  3  15
20  6  23  7  8  9
21  3  25  8  7  23
22  3  15  3  2  14
23  3  17  4  5  6
24  3  22  6  5  4
25  3  15  3  2  13
26  3  21  6  5  20
27  3  20  5  4  3
28  3  22  6  5  19
29  3  19  5  4  18
30  3  16  3  2  13
31  3  24  7  6  22
32  3  17  4  3  15
33  3  18  4  5  6
34  3  13  2  1  12
35  3  14  2  1  11
36  3  21  6  5  19
37  3  12  1  2  3
38  3  20  5  4  18
39  3  19  5  4  17
40  3  16  3  4  5
41  3  19  5  6  7
42  3  26  8  7  24
43  3  20  5  6  7
44  3  19  5  4  3
45  3  13  2  1  11
46  3  14  2  1  10
47  3  23  7  6  5
48  6  24  7  8  9
49  3  16  3  2  1
50  3  14  2  3  4
51  3  13  2  3  4
52  3  16  3  2  14
53  3  22  6  7  8
54  5  27  9  8  26
55  3  25  8  7  6
56  3  13  2  1  10
57  3  23  7  6  21
58  3  22  6  5  20
59  3  17  4  3  16
60  3  24  7  6  21
61  3  23  7  6  22
62  3  14  2  1  12
63  3  21  6  7  8
64  3  24  7  6  5
65  3  25  8  7  24
66  3  26  8  7  23

Impropers

1  1  1  2  11  10
2  1  1  2  12  10
3  1  2  1  3  13
4  1  2  1  3  14
5  1  3  2  4  15
6  1  3  2  4  16
7  1  4  17  3  5
8  1  4  18  3  5
9  1  5  19  4  6
10  1  5  4  20  6
11  1  6  5  21  7
12  1  6  5  22  7
13  1  7  8  23  6
14  1  7  8  6  24
15  1  8  25  9  7
16  1  8  9  26  7
