LAMMPS data file Created by LigParGen - (Written by Leela S. Dodda)

      27 atoms
      26 bonds
      49 angles
      66 dihedrals
      16 impropers
 
      27 atom types
      26 bond types
      49 angle types
      66 dihedral types
      16 improper types
 
   -7.403030    42.596970 xlo xhi
   -0.173020    49.826980 ylo yhi
   -1.027200    48.972800 zlo zhi

Masses

       1     12.011  
       2     12.011  
       3     12.011  
       4     12.011  
       5     12.011  
       6     12.011  
       7     12.011  
       8     12.011  
       9     32.060  
      10      1.008  
      11      1.008  
      12      1.008  
      13      1.008  
      14      1.008  
      15      1.008  
      16      1.008  
      17      1.008  
      18      1.008  
      19      1.008  
      20      1.008  
      21      1.008  
      22      1.008  
      23      1.008  
      24      1.008  
      25      1.008  
      26      1.008  
      27      1.008  

Pair Coeffs 

       1      0.066  3.5000000 
       2      0.066  3.5000000 
       3      0.066  3.5000000 
       4      0.066  3.5000000 
       5      0.066  3.5000000 
       6      0.066  3.5000000 
       7      0.066  3.5000000 
       8      0.066  3.5000000 
       9      0.425  3.6000000 
      10      0.030  2.5000000 
      11      0.030  2.5000000 
      12      0.030  2.5000000 
      13      0.030  2.5000000 
      14      0.030  2.5000000 
      15      0.030  2.5000000 
      16      0.030  2.5000000 
      17      0.030  2.5000000 
      18      0.030  2.5000000 
      19      0.030  2.5000000 
      20      0.030  2.5000000 
      21      0.030  2.5000000 
      22      0.030  2.5000000 
      23      0.030  2.5000000 
      24      0.030  2.5000000 
      25      0.030  2.5000000 
      26      0.030  2.5000000 
      27      0.000  0.0000000 

Bond Coeffs 

       1   268.0000     1.5290 
       2   268.0000     1.5290 
       3   268.0000     1.5290 
       4   268.0000     1.5290 
       5   268.0000     1.5290 
       6   268.0000     1.5290 
       7   268.0000     1.5290 
       8   222.0000     1.8100 
       9   340.0000     1.0900 
      10   340.0000     1.0900 
      11   340.0000     1.0900 
      12   340.0000     1.0900 
      13   340.0000     1.0900 
      14   340.0000     1.0900 
      15   340.0000     1.0900 
      16   340.0000     1.0900 
      17   340.0000     1.0900 
      18   340.0000     1.0900 
      19   340.0000     1.0900 
      20   340.0000     1.0900 
      21   340.0000     1.0900 
      22   340.0000     1.0900 
      23   340.0000     1.0900 
      24   340.0000     1.0900 
      25   340.0000     1.0900 
      26   274.0000     1.3360 

Angle Coeffs 

       1     58.350    112.700
       2     58.350    112.700
       3     58.350    112.700
       4     58.350    112.700
       5     58.350    112.700
       6     58.350    112.700
       7     50.000    108.600
       8     37.500    110.700
       9     37.500    110.700
      10     37.500    110.700
      11     37.500    110.700
      12     37.500    110.700
      13     37.500    110.700
      14     37.500    110.700
      15     37.500    110.700
      16     37.500    110.700
      17     37.500    110.700
      18     37.500    110.700
      19     37.500    110.700
      20     37.500    110.700
      21     37.500    110.700
      22     37.500    110.700
      23     37.500    110.700
      24     37.500    110.700
      25     44.000     96.000
      26     33.000    107.800
      27     35.000    109.500
      28     37.500    110.700
      29     33.000    107.800
      30     33.000    107.800
      31     37.500    110.700
      32     33.000    107.800
      33     33.000    107.800
      34     33.000    107.800
      35     37.500    110.700
      36     33.000    107.800
      37     33.000    107.800
      38     37.500    110.700
      39     33.000    107.800
      40     33.000    107.800
      41     37.500    110.700
      42     35.000    109.500
      43     37.500    110.700
      44     37.500    110.700
      45     37.500    110.700
      46     37.500    110.700
      47     37.500    110.700
      48     37.500    110.700
      49     37.500    110.700

Dihedral Coeffs  

       1      1.300     -0.200      0.200      0.000 
       2      1.300     -0.200      0.200      0.000 
       3      1.300     -0.200      0.200      0.000 
       4      1.300     -0.200      0.200      0.000 
       5      1.300     -0.200      0.200      0.000 
       6      1.262     -0.198      0.465      0.000 
       7      0.000      0.000      0.300      0.000 
       8     -0.759     -0.282      0.680      0.000 
       9      0.000      0.000      0.300      0.000 
      10      0.000      0.000      0.300      0.000 
      11      0.000      0.000      0.480      0.000 
      12      0.000      0.000      0.300      0.000 
      13      0.000      0.000      0.300      0.000 
      14      0.000      0.000      0.300      0.000 
      15      0.000      0.000      0.300      0.000 
      16      0.000      0.000      0.300      0.000 
      17      0.000      0.000      0.300      0.000 
      18      0.000      0.000      0.300      0.000 
      19      0.000      0.000      0.300      0.000 
      20      0.000      0.000      0.452      0.000 
      21      0.000      0.000      0.300      0.000 
      22      0.000      0.000      0.300      0.000 
      23      0.000      0.000      0.300      0.000 
      24      0.000      0.000      0.300      0.000 
      25      0.000      0.000      0.300      0.000 
      26      0.000      0.000      0.300      0.000 
      27      0.000      0.000      0.300      0.000 
      28      0.000      0.000      0.300      0.000 
      29      0.000      0.000      0.300      0.000 
      30      0.000      0.000      0.300      0.000 
      31      0.000      0.000      0.300      0.000 
      32      0.000      0.000      0.300      0.000 
      33      0.000      0.000      0.300      0.000 
      34      0.000      0.000      0.300      0.000 
      35      0.000      0.000      0.300      0.000 
      36      0.000      0.000      0.300      0.000 
      37      0.000      0.000      0.300      0.000 
      38      0.000      0.000      0.300      0.000 
      39      0.000      0.000      0.300      0.000 
      40      0.000      0.000      0.300      0.000 
      41      0.000      0.000      0.300      0.000 
      42      0.000      0.000      0.300      0.000 
      43      0.000      0.000      0.300      0.000 
      44      0.000      0.000      0.300      0.000 
      45      0.000      0.000      0.300      0.000 
      46      0.000      0.000      0.300      0.000 
      47      0.000      0.000      0.300      0.000 
      48      0.000      0.000      0.452      0.000 
      49      0.000      0.000      0.300      0.000 
      50      0.000      0.000      0.300      0.000 
      51      0.000      0.000      0.300      0.000 
      52      0.000      0.000      0.300      0.000 
      53      0.000      0.000      0.300      0.000 
      54      0.000      0.000      0.480      0.000 
      55      0.000      0.000      0.300      0.000 
      56      0.000      0.000      0.300      0.000 
      57      0.000      0.000      0.300      0.000 
      58      0.000      0.000      0.300      0.000 
      59      0.000      0.000      0.300      0.000 
      60      0.000      0.000      0.300      0.000 
      61      0.000      0.000      0.300      0.000 
      62      0.000      0.000      0.300      0.000 
      63      0.000      0.000      0.300      0.000 
      64      0.000      0.000      0.300      0.000 
      65      0.000      0.000      0.300      0.000 
      66      0.000      0.000      0.300      0.000 

Improper Coeffs 

       1      0.000      -1       2 
       2      0.000      -1       2 
       3      0.000      -1       2 
       4      0.000      -1       2 
       5      0.000      -1       2 
       6      0.000      -1       2 
       7      0.000      -1       2 
       8      0.000      -1       2 
       9      0.000      -1       2 
      10      0.000      -1       2 
      11      0.000      -1       2 
      12      0.000      -1       2 
      13      0.000      -1       2 
      14      0.000      -1       2 
      15      0.000      -1       2 
      16      0.000      -1       2 

Atoms 

     1      1      1 -0.23900000    1.000  1.00000  0.00000
     2      1      2 -0.17920000   -0.520  1.00000  0.00000
     3      1      3 -0.17820000   -1.077  1.00000  1.42327
     4      1      4 -0.17880000   -2.607  0.99820  1.42327
     5      1      5 -0.17830000   -3.159  1.00001  2.84948
     6      1      6 -0.17980000   -4.689  0.99642  2.85440
     7      1      7 -0.18370000   -5.237  0.99644  4.28387
     8      1      8 0.01270000   -6.763  0.99105  4.28225
     9      1      9 -0.44160000   -7.403  0.99326  5.98167
    10      1     10 0.08130000    1.378  1.00130 -1.02720
    11      1     11 0.08130000    1.391  0.11120  0.50522
    12      1     12 0.08130000    1.391  1.88755  0.50748
    13      1     13 0.08850000   -0.879  0.11670 -0.54097
    14      1     14 0.08850000   -0.879  1.88335 -0.54099
    15      1     15 0.08990000   -0.711  1.88350  1.96023
    16      1     16 0.08990000   -0.709  0.11786  1.96105
    17      1     17 0.08990000   -2.972  0.11354  0.88808
    18      1     18 0.08990000   -2.974  1.88026  0.88497
    19      1     19 0.09110000   -2.792  1.88476  3.38368
    20      1     20 0.09110000   -2.788  0.11893  3.38662
    21      1     21 0.09140000   -5.055  0.11155  2.31957
    22      1     22 0.09140000   -5.059  1.87855  2.31796
    23      1     23 0.10170000   -4.864  1.88339  4.81161
    24      1     24 0.10170000   -4.858  0.11329  4.81307
    25      1     25 0.12590000   -7.145  0.10299  3.76855
    26      1     26 0.12590000   -7.150  1.87573  3.76680
    27      1     27 0.14530000   -6.856 -0.17302  6.35448

Bonds 

     1      1      2      1
     2      2      3      2
     3      3      4      3
     4      4      5      4
     5      5      6      5
     6      6      7      6
     7      7      8      7
     8      8      9      8
     9      9     10      1
    10     10     11      1
    11     11     12      1
    12     12     13      2
    13     13     14      2
    14     14     15      3
    15     15     16      3
    16     16     17      4
    17     17     18      4
    18     18     19      5
    19     19     20      5
    20     20     21      6
    21     21     22      6
    22     22     23      7
    23     23     24      7
    24     24     25      8
    25     25     26      8
    26     26     27      9

Angles 

     1      1      1      2      3
     2      2      2      3      4
     3      3      3      4      5
     4      4      4      5      6
     5      5      5      6      7
     6      6      6      7      8
     7      7      7      8      9
     8      8      2      1     10
     9      9      2      1     11
    10     10      2      1     12
    11     11      1      2     13
    12     12      1      2     14
    13     13      2      3     15
    14     14      2      3     16
    15     15      3      4     17
    16     16      3      4     18
    17     17      4      5     19
    18     18      4      5     20
    19     19      5      6     21
    20     20      5      6     22
    21     21      6      7     23
    22     22      6      7     24
    23     23      7      8     25
    24     24      7      8     26
    25     25      8      9     27
    26     26     23      7     24
    27     27      9      8     25
    28     28      3      2     14
    29     29     13      2     14
    30     30     21      6     22
    31     31      6      5     19
    32     32     17      4     18
    33     33     25      8     26
    34     34     15      3     16
    35     35      8      7     23
    36     36     19      5     20
    37     37     11      1     12
    38     38      6      5     20
    39     39     10      1     12
    40     40     10      1     11
    41     41      3      2     13
    42     42      9      8     26
    43     43      4      3     16
    44     44      8      7     24
    45     45      5      4     18
    46     46      7      6     22
    47     47      7      6     21
    48     48      4      3     15
    49     49      5      4     17

Dihedrals

     1      1      4      3      2      1 
     2      2      5      4      3      2 
     3      3      6      5      4      3 
     4      4      7      6      5      4 
     5      5      8      7      6      5 
     6      6      9      8      7      6 
     7      7     10      1      2      3 
     8      8     27      9      8      7 
     9      9     18      4      3     16 
    10     10     15      3      4      5 
    11     11     27      9      8     25 
    12     12     17      4      3      2 
    13     13     15      3      2      1 
    14     14     18      4      3      2 
    15     15     21      6      5      4 
    16     16     20      5      4     17 
    17     17     26      8      7      6 
    18     18     11      1      2      3 
    19     19     18      4      3     15 
    20     20     23      7      8      9 
    21     21     25      8      7     23 
    22     22     15      3      2     14 
    23     23     17      4      5      6 
    24     24     22      6      5      4 
    25     25     15      3      2     13 
    26     26     21      6      5     20 
    27     27     20      5      4      3 
    28     28     22      6      5     19 
    29     29     19      5      4     18 
    30     30     16      3      2     13 
    31     31     24      7      6     22 
    32     32     17      4      3     15 
    33     33     18      4      5      6 
    34     34     13      2      1     12 
    35     35     14      2      1     11 
    36     36     21      6      5     19 
    37     37     12      1      2      3 
    38     38     20      5      4     18 
    39     39     19      5      4     17 
    40     40     16      3      4      5 
    41     41     19      5      6      7 
    42     42     26      8      7     24 
    43     43     20      5      6      7 
    44     44     19      5      4      3 
    45     45     13      2      1     11 
    46     46     14      2      1     10 
    47     47     23      7      6      5 
    48     48     24      7      8      9 
    49     49     16      3      2      1 
    50     50     14      2      3      4 
    51     51     13      2      3      4 
    52     52     16      3      2     14 
    53     53     22      6      7      8 
    54     54     27      9      8     26 
    55     55     25      8      7      6 
    56     56     13      2      1     10 
    57     57     23      7      6     21 
    58     58     22      6      5     20 
    59     59     17      4      3     16 
    60     60     24      7      6     21 
    61     61     23      7      6     22 
    62     62     14      2      1     12 
    63     63     21      6      7      8 
    64     64     24      7      6      5 
    65     65     25      8      7     24 
    66     66     26      8      7     23 

Impropers

     1      1      1      2     11     10 
     2      2      1      2     12     10 
     3      3      2      1      3     13 
     4      4      2      1      3     14 
     5      5      3      2      4     15 
     6      6      3      2      4     16 
     7      7      4     17      3      5 
     8      8      4     18      3      5 
     9      9      5     19      4      6 
    10     10      5      4     20      6 
    11     11      6      5     21      7 
    12     12      6      5     22      7 
    13     13      7      8     23      6 
    14     14      7      8      6     24 
    15     15      8     25      9      7 
    16     16      8      9     26      7 

