LAMMPS data file Created by LigParGen - (Written by Leela S. Dodda)

      50 atoms
      49 bonds
      94 angles
     134 dihedrals
      31 impropers
 
      50 atom types
      49 bond types
      94 angle types
     134 dihedral types
      31 improper types
 
  -15.720910    34.279090 xlo xhi
    0.112660    50.112660 ylo yhi
   -1.026260    48.973740 zlo zhi

Masses

       1     12.011  
       2     12.011  
       3     12.011  
       4     12.011  
       5     12.011  
       6     12.011  
       7     12.011  
       8     12.011  
       9     12.011  
      10     12.011  
      11     12.011  
      12     12.011  
      13     12.011  
      14     12.011  
      15     12.011  
      16     12.011  
      17     15.999  
      18     15.999  
      19      1.008  
      20      1.008  
      21      1.008  
      22      1.008  
      23      1.008  
      24      1.008  
      25      1.008  
      26      1.008  
      27      1.008  
      28      1.008  
      29      1.008  
      30      1.008  
      31      1.008  
      32      1.008  
      33      1.008  
      34      1.008  
      35      1.008  
      36      1.008  
      37      1.008  
      38      1.008  
      39      1.008  
      40      1.008  
      41      1.008  
      42      1.008  
      43      1.008  
      44      1.008  
      45      1.008  
      46      1.008  
      47      1.008  
      48      1.008  
      49      1.008  
      50      1.008  

Pair Coeffs 

       1      0.066  3.5000000 
       2      0.066  3.5000000 
       3      0.066  3.5000000 
       4      0.066  3.5000000 
       5      0.066  3.5000000 
       6      0.066  3.5000000 
       7      0.066  3.5000000 
       8      0.066  3.5000000 
       9      0.066  3.5000000 
      10      0.066  3.5000000 
      11      0.066  3.5000000 
      12      0.066  3.5000000 
      13      0.066  3.5000000 
      14      0.066  3.5000000 
      15      0.066  3.5000000 
      16      0.070  3.5500000 
      17      0.210  2.9600000 
      18      0.170  3.1200000 
      19      0.030  2.5000000 
      20      0.030  2.5000000 
      21      0.030  2.5000000 
      22      0.030  2.5000000 
      23      0.030  2.5000000 
      24      0.030  2.5000000 
      25      0.030  2.5000000 
      26      0.030  2.5000000 
      27      0.030  2.5000000 
      28      0.030  2.5000000 
      29      0.030  2.5000000 
      30      0.030  2.5000000 
      31      0.030  2.5000000 
      32      0.030  2.5000000 
      33      0.030  2.5000000 
      34      0.030  2.5000000 
      35      0.030  2.5000000 
      36      0.030  2.5000000 
      37      0.030  2.5000000 
      38      0.030  2.5000000 
      39      0.030  2.5000000 
      40      0.030  2.5000000 
      41      0.030  2.5000000 
      42      0.030  2.5000000 
      43      0.030  2.5000000 
      44      0.030  2.5000000 
      45      0.030  2.5000000 
      46      0.030  2.5000000 
      47      0.030  2.5000000 
      48      0.030  2.5000000 
      49      0.030  2.5000000 
      50      0.000  0.0000000 

Bond Coeffs 

       1   268.0000     1.5290 
       2   268.0000     1.5290 
       3   268.0000     1.5290 
       4   268.0000     1.5290 
       5   268.0000     1.5290 
       6   268.0000     1.5290 
       7   268.0000     1.5290 
       8   268.0000     1.5290 
       9   268.0000     1.5290 
      10   268.0000     1.5290 
      11   268.0000     1.5290 
      12   268.0000     1.5290 
      13   268.0000     1.5290 
      14   268.0000     1.5290 
      15   317.0000     1.5220 
      16   570.0000     1.2290 
      17   450.0000     1.3640 
      18   340.0000     1.0900 
      19   340.0000     1.0900 
      20   340.0000     1.0900 
      21   340.0000     1.0900 
      22   340.0000     1.0900 
      23   340.0000     1.0900 
      24   340.0000     1.0900 
      25   340.0000     1.0900 
      26   340.0000     1.0900 
      27   340.0000     1.0900 
      28   340.0000     1.0900 
      29   340.0000     1.0900 
      30   340.0000     1.0900 
      31   340.0000     1.0900 
      32   340.0000     1.0900 
      33   340.0000     1.0900 
      34   340.0000     1.0900 
      35   340.0000     1.0900 
      36   340.0000     1.0900 
      37   340.0000     1.0900 
      38   340.0000     1.0900 
      39   340.0000     1.0900 
      40   340.0000     1.0900 
      41   340.0000     1.0900 
      42   340.0000     1.0900 
      43   340.0000     1.0900 
      44   340.0000     1.0900 
      45   340.0000     1.0900 
      46   340.0000     1.0900 
      47   340.0000     1.0900 
      48   340.0000     1.0900 
      49   553.0000     0.9450 

Angle Coeffs 

       1     58.350    112.700
       2     58.350    112.700
       3     58.350    112.700
       4     58.350    112.700
       5     58.350    112.700
       6     58.350    112.700
       7     58.350    112.700
       8     58.350    112.700
       9     58.350    112.700
      10     58.350    112.700
      11     58.350    112.700
      12     58.350    112.700
      13     58.350    112.700
      14     63.000    111.100
      15     80.000    120.400
      16     70.000    108.000
      17     37.500    110.700
      18     37.500    110.700
      19     37.500    110.700
      20     37.500    110.700
      21     37.500    110.700
      22     37.500    110.700
      23     37.500    110.700
      24     37.500    110.700
      25     37.500    110.700
      26     37.500    110.700
      27     37.500    110.700
      28     37.500    110.700
      29     37.500    110.700
      30     37.500    110.700
      31     37.500    110.700
      32     37.500    110.700
      33     37.500    110.700
      34     37.500    110.700
      35     37.500    110.700
      36     37.500    110.700
      37     37.500    110.700
      38     37.500    110.700
      39     37.500    110.700
      40     37.500    110.700
      41     37.500    110.700
      42     37.500    110.700
      43     37.500    110.700
      44     37.500    110.700
      45     37.500    110.700
      46     37.500    110.700
      47     37.500    110.700
      48     35.000    113.000
      49     37.500    110.700
      50     37.500    110.700
      51     37.500    110.700
      52     33.000    107.800
      53     37.500    110.700
      54     33.000    107.800
      55     33.000    107.800
      56     37.500    110.700
      57     37.500    110.700
      58     33.000    107.800
      59     37.500    110.700
      60     37.500    110.700
      61     37.500    110.700
      62     37.500    110.700
      63     37.500    110.700
      64     37.500    110.700
      65     33.000    107.800
      66     33.000    107.800
      67     37.500    110.700
      68     37.500    110.700
      69     33.000    107.800
      70     33.000    107.800
      71     33.000    107.800
      72     80.000    121.000
      73     37.500    110.700
      74     33.000    107.800
      75     33.000    107.800
      76     37.500    110.700
      77     33.000    107.800
      78     33.000    107.800
      79     33.000    107.800
      80     37.500    110.700
      81     35.000    109.500
      82     33.000    107.800
      83     37.500    110.700
      84     37.500    110.700
      85     37.500    110.700
      86     37.500    110.700
      87     35.000    109.500
      88     37.500    110.700
      89     37.500    110.700
      90     33.000    107.800
      91     33.000    107.800
      92     37.500    110.700
      93     37.500    110.700
      94     37.500    110.700

Dihedral Coeffs  

       1      1.300     -0.200      0.200      0.000 
       2      1.300     -0.200      0.200      0.000 
       3      1.300     -0.200      0.200      0.000 
       4      1.300     -0.200      0.200      0.000 
       5      1.300     -0.200      0.200      0.000 
       6      1.300     -0.200      0.200      0.000 
       7      1.300     -0.200      0.200      0.000 
       8      1.300     -0.200      0.200      0.000 
       9      1.300     -0.200      0.200      0.000 
      10      1.300     -0.200      0.200      0.000 
      11      1.300     -0.200      0.200      0.000 
      12      1.300     -0.200      0.200      0.000 
      13     -2.060     -0.313      0.315      0.000 
      14      0.000      0.000      0.000      0.000 
      15      0.000      0.000      0.300      0.000 
      16      1.500      5.500      0.000      0.000 
      17      0.000      0.000      0.300      0.000 
      18      0.000      0.000      0.300      0.000 
      19      0.000      0.000      0.300      0.000 
      20      0.000      0.000      0.300      0.000 
      21      0.000      0.000      0.300      0.000 
      22      0.000      0.000      0.300      0.000 
      23      0.000      0.000      0.300      0.000 
      24      0.000      0.000      0.300      0.000 
      25      0.000      0.000      0.300      0.000 
      26      0.000      0.000      0.000      0.000 
      27      0.000      0.000      0.300      0.000 
      28      0.000      0.000      0.300      0.000 
      29      0.000      0.000      0.300      0.000 
      30      0.000      0.000      0.300      0.000 
      31      0.000      0.000      0.300      0.000 
      32      0.000      0.000      0.300      0.000 
      33      0.000      0.000      0.300      0.000 
      34      0.000      0.000      0.300      0.000 
      35      0.000      0.000      0.300      0.000 
      36      0.000      0.000      0.300      0.000 
      37      0.000      0.000      0.300      0.000 
      38      0.000      0.000      0.300      0.000 
      39      0.000      0.000      0.300      0.000 
      40      0.000      0.000      0.300      0.000 
      41      0.000      0.000      0.300      0.000 
      42      0.000      0.000      0.300      0.000 
      43      0.000      0.000      0.300      0.000 
      44      0.000      0.000      0.300      0.000 
      45      0.000      0.000      0.300      0.000 
      46      0.000      0.000      0.300      0.000 
      47      0.000      0.000      0.300      0.000 
      48      0.000      0.000      0.300      0.000 
      49      0.000      0.000      0.300      0.000 
      50      0.000      0.000      0.300      0.000 
      51      0.000      0.000      0.300      0.000 
      52      0.000      0.000      0.300      0.000 
      53      0.000      0.000      0.300      0.000 
      54      0.000      0.000      0.300      0.000 
      55      0.000      0.000      0.300      0.000 
      56      0.000      0.000      0.300      0.000 
      57      0.000      0.000      0.300      0.000 
      58      0.000      0.000      0.300      0.000 
      59      0.000      0.000      0.300      0.000 
      60      0.000      0.000      0.300      0.000 
      61      0.000      0.000      0.000      0.000 
      62      0.000      0.000      0.300      0.000 
      63      0.000      0.000      0.300      0.000 
      64      0.000      0.000      0.300      0.000 
      65      0.000      0.000      0.300      0.000 
      66      0.000      0.000      0.300      0.000 
      67      0.000      0.000      0.300      0.000 
      68      0.000      0.000      0.300      0.000 
      69      0.000      0.000      0.300      0.000 
      70      0.000      0.000      0.300      0.000 
      71      0.000      0.000      0.300      0.000 
      72      0.000      0.000      0.300      0.000 
      73      0.000      0.000      0.300      0.000 
      74      0.000      0.000      0.300      0.000 
      75      0.000      0.000      0.300      0.000 
      76      0.000      5.500      0.000      0.000 
      77      0.000      0.000      0.000      0.000 
      78      0.000      0.000      0.300      0.000 
      79      0.000      0.000      0.300      0.000 
      80      0.000      0.000      0.300      0.000 
      81      0.000      0.000      0.300      0.000 
      82      0.000      0.000      0.300      0.000 
      83      0.000      0.000      0.300      0.000 
      84      0.000      0.000      0.300      0.000 
      85      0.000      0.000      0.300      0.000 
      86      0.000      0.000      0.300      0.000 
      87      0.000      0.000      0.300      0.000 
      88      0.000      0.000      0.300      0.000 
      89      0.000      0.000      0.300      0.000 
      90      0.000      0.000      0.300      0.000 
      91      0.000      0.000      0.300      0.000 
      92      0.000      0.000      0.300      0.000 
      93      0.000      0.000      0.300      0.000 
      94      0.000      0.000      0.300      0.000 
      95      1.000      0.546      0.450      0.000 
      96      0.000      0.000      0.300      0.000 
      97      0.000      0.000      0.300      0.000 
      98      0.000      0.000      0.300      0.000 
      99      0.000      0.000      0.300      0.000 
     100      0.000      0.000      0.300      0.000 
     101      0.000      0.000      0.300      0.000 
     102      0.000      0.000      0.300      0.000 
     103      0.000      0.000      0.300      0.000 
     104      0.000      0.000      0.300      0.000 
     105      0.000      0.000      0.300      0.000 
     106      0.000      0.000      0.000      0.000 
     107      0.000      0.000      0.300      0.000 
     108      0.000      0.000      0.300      0.000 
     109      0.000      0.000      0.300      0.000 
     110      0.000      0.000      0.300      0.000 
     111      0.000      0.000      0.300      0.000 
     112      0.000      0.000      0.300      0.000 
     113      0.000      0.000      0.300      0.000 
     114      0.000      0.000      0.300      0.000 
     115      0.000      0.000      0.300      0.000 
     116      0.000      0.000      0.300      0.000 
     117      0.000      0.000      0.300      0.000 
     118      0.000      0.000      0.300      0.000 
     119      0.000      0.000      0.300      0.000 
     120      0.000      0.000      0.300      0.000 
     121      0.000      0.000     -0.100      0.000 
     122      0.000      0.000      0.300      0.000 
     123      0.000      0.000      0.300      0.000 
     124      0.000      0.000      0.300      0.000 
     125      0.000      0.000      0.300      0.000 
     126      0.000      0.000      0.300      0.000 
     127      0.000      0.000     -0.100      0.000 
     128      0.000      0.000      0.300      0.000 
     129      0.000      0.000      0.300      0.000 
     130      0.000      0.000      0.300      0.000 
     131      0.000      0.000      0.300      0.000 
     132      0.000      0.000      0.300      0.000 
     133      0.000      0.000      0.300      0.000 
     134      0.000      0.000      0.300      0.000 

Improper Coeffs 

       1     10.500      -1       2 
       2      0.000      -1       2 
       3      0.000      -1       2 
       4      0.000      -1       2 
       5      0.000      -1       2 
       6      0.000      -1       2 
       7      0.000      -1       2 
       8      0.000      -1       2 
       9      0.000      -1       2 
      10      0.000      -1       2 
      11      0.000      -1       2 
      12      0.000      -1       2 
      13      0.000      -1       2 
      14      0.000      -1       2 
      15      0.000      -1       2 
      16      0.000      -1       2 
      17      0.000      -1       2 
      18      0.000      -1       2 
      19      0.000      -1       2 
      20      0.000      -1       2 
      21      0.000      -1       2 
      22      0.000      -1       2 
      23      0.000      -1       2 
      24      0.000      -1       2 
      25      0.000      -1       2 
      26      0.000      -1       2 
      27      0.000      -1       2 
      28      0.000      -1       2 
      29      0.000      -1       2 
      30      0.000      -1       2 
      31      0.000      -1       2 

Atoms 

     1      1      1 -0.23880000    1.000  1.00000  0.00000
     2      1      2 -0.17960000   -0.520  1.00000  0.00000
     3      1      3 -0.17860000   -1.071  1.00000  1.42353
     4      1      4 -0.17940000   -2.598  1.00180  1.42353
     5      1      5 -0.17930000   -3.142  0.99999  2.84994
     6      1      6 -0.17930000   -4.668  0.99998  2.85320
     7      1      7 -0.17950000   -5.206  0.99997  4.28128
     8      1      8 -0.17940000   -6.731  0.99816  4.28944
     9      1      9 -0.17920000   -7.264  0.99996  5.71928
    10      1     10 -0.17960000   -8.789  0.99995  5.72906
    11      1     11 -0.17890000   -9.327  1.00355  7.15778
    12      1     12 -0.17880000  -10.853  1.00533  7.15778
    13      1     13 -0.17990000  -11.409  1.00714  8.57999
    14      1     14 -0.17080000  -12.936  1.01070  8.55710
    15      1     15 -0.26080000  -13.518  1.01436  9.96775
    16      1     16 0.51000000  -15.029  1.01967  9.94347
    17      1     17 -0.44430000  -15.721  1.02096  8.93880
    18      1     18 -0.56030000  -15.560  1.02454 11.18883
    19      1     19 0.08080000    1.379  0.99870 -1.02626
    20      1     20 0.08080000    1.390  0.11266  0.50872
    21      1     21 0.08080000    1.390  1.88856  0.50643
    22      1     22 0.08850000   -0.881  0.11661 -0.53960
    23      1     23 0.08850000   -0.881  1.88331 -0.53955
    24      1     24 0.08940000   -0.703  1.88253  1.96075
    25      1     25 0.08940000   -0.705  0.11618  1.95990
    26      1     26 0.08960000   -2.968  0.11981  0.88669
    27      1     27 0.08960000   -2.966  1.88654  0.88970
    28      1     28 0.08940000   -2.772  1.88215  3.38684
    29      1     29 0.08940000   -2.773  0.11590  3.38419
    30      1     30 0.09000000   -5.038  0.11659  2.31864
    31      1     31 0.09000000   -5.039  1.88306  2.31884
    32      1     32 0.08950000   -4.835  1.88351  4.81510
    33      1     33 0.08950000   -4.834  0.11722  4.81547
    34      1     34 0.09040000   -7.102  0.11332  3.75752
    35      1     35 0.09040000   -7.104  1.88021  3.75456
    36      1     36 0.08950000   -6.891  1.88405  6.25076
    37      1     37 0.08950000   -6.891  0.11723  6.25298
    38      1     38 0.09110000   -9.161  0.11539  5.19701
    39      1     39 0.09110000   -9.161  1.88183  5.19254
    40      1     40 0.08940000   -8.955  1.88751  7.68966
    41      1     41 0.08940000   -8.957  0.12089  7.69337
    42      1     42 0.09390000  -11.220  0.12202  6.62038
    43      1     43 0.09390000  -11.218  1.88857  6.61896
    44      1     44 0.08830000  -11.043  1.88984  9.11817
    45      1     45 0.08830000  -11.047  0.12313  9.11878
    46      1     46 0.11110000  -13.297  0.12992  8.01084
    47      1     47 0.11110000  -13.293  1.89136  8.00801
    48      1     48 0.12130000  -13.179  1.90688 10.50506
    49      1     49 0.12130000  -13.186  0.12017 10.50666
    50      1     50 0.45120000  -14.892  1.02387 11.89916

Bonds 

     1      1      2      1
     2      2      3      2
     3      3      4      3
     4      4      5      4
     5      5      6      5
     6      6      7      6
     7      7      8      7
     8      8      9      8
     9      9     10      9
    10     10     11     10
    11     11     12     11
    12     12     13     12
    13     13     14     13
    14     14     15     14
    15     15     16     15
    16     16     17     16
    17     17     18     16
    18     18     19      1
    19     19     20      1
    20     20     21      1
    21     21     22      2
    22     22     23      2
    23     23     24      3
    24     24     25      3
    25     25     26      4
    26     26     27      4
    27     27     28      5
    28     28     29      5
    29     29     30      6
    30     30     31      6
    31     31     32      7
    32     32     33      7
    33     33     34      8
    34     34     35      8
    35     35     36      9
    36     36     37      9
    37     37     38     10
    38     38     39     10
    39     39     40     11
    40     40     41     11
    41     41     42     12
    42     42     43     12
    43     43     44     13
    44     44     45     13
    45     45     46     14
    46     46     47     14
    47     47     48     15
    48     48     49     15
    49     49     50     18

Angles 

     1      1      1      2      3
     2      2      2      3      4
     3      3      3      4      5
     4      4      4      5      6
     5      5      5      6      7
     6      6      6      7      8
     7      7      7      8      9
     8      8      8      9     10
     9      9      9     10     11
    10     10     10     11     12
    11     11     11     12     13
    12     12     12     13     14
    13     13     13     14     15
    14     14     14     15     16
    15     15     15     16     17
    16     16     15     16     18
    17     17      2      1     19
    18     18      2      1     20
    19     19      2      1     21
    20     20      1      2     22
    21     21      1      2     23
    22     22      2      3     24
    23     23      2      3     25
    24     24      3      4     26
    25     25      3      4     27
    26     26      4      5     28
    27     27      4      5     29
    28     28      5      6     30
    29     29      5      6     31
    30     30      6      7     32
    31     31      6      7     33
    32     32      7      8     34
    33     33      7      8     35
    34     34      8      9     36
    35     35      8      9     37
    36     36      9     10     38
    37     37      9     10     39
    38     38     10     11     40
    39     39     10     11     41
    40     40     11     12     42
    41     41     11     12     43
    42     42     12     13     44
    43     43     12     13     45
    44     44     13     14     46
    45     45     13     14     47
    46     46     14     15     48
    47     47     14     15     49
    48     48     16     18     50
    49     49     15     14     47
    50     50     11     10     38
    51     51     12     11     40
    52     52     19      1     21
    53     53      4      3     24
    54     54     46     14     47
    55     55     20      1     21
    56     56      5      4     27
    57     57      7      6     31
    58     58     24      3     25
    59     59     14     13     45
    60     60      5      4     26
    61     61      9      8     34
    62     62      8      7     32
    63     63     15     14     46
    64     64      8      7     33
    65     65     48     15     49
    66     66     38     10     39
    67     67      6      5     28
    68     68     13     12     42
    69     69     42     12     43
    70     70     32      7     33
    71     71     44     13     45
    72     72     17     16     18
    73     73      4      3     25
    74     74     26      4     27
    75     75     22      2     23
    76     76     13     12     43
    77     77     28      5     29
    78     78     36      9     37
    79     79     34      8     35
    80     80      7      6     30
    81     81     16     15     48
    82     82     30      6     31
    83     83     11     10     39
    84     84      3      2     22
    85     85      3      2     23
    86     86      9      8     35
    87     87     16     15     49
    88     88     10      9     37
    89     89     10      9     36
    90     90     40     11     41
    91     91     19      1     20
    92     92      6      5     29
    93     93     12     11     41
    94     94     14     13     44

Dihedrals

     1      1      4      3      2      1 
     2      2      5      4      3      2 
     3      3      6      5      4      3 
     4      4      7      6      5      4 
     5      5      8      7      6      5 
     6      6      9      8      7      6 
     7      7     10      9      8      7 
     8      8     11     10      9      8 
     9      9     12     11     10      9 
    10     10     13     12     11     10 
    11     11     14     13     12     11 
    12     12     15     14     13     12 
    13     13     16     15     14     13 
    14     14     17     16     15     14 
    15     15     19      1      2      3 
    16     16     50     18     16     15 
    17     17     34      8      7      6 
    18     18     38     10      9      8 
    19     19     47     14     13     44 
    20     20     25      3      4      5 
    21     21     47     14     13     45 
    22     22     48     15     14     47 
    23     23     49     15     14     46 
    24     24     35      8      9     10 
    25     25     23      2      1     21 
    26     26     48     15     16     17 
    27     27     45     13     14     15 
    28     28     39     10      9     36 
    29     29     39     10     11     12 
    30     30     33      7      6     30 
    31     31     32      7      6     31 
    32     32     32      7      8      9 
    33     33     33      7      6     31 
    34     34     28      5      4      3 
    35     35     46     14     13     45 
    36     36     23      2      3      4 
    37     37     24      3      2     22 
    38     38     27      4      3     25 
    39     39     38     10      9     36 
    40     40     30      6      5     28 
    41     41     35      8      7     33 
    42     42     43     12     11     40 
    43     43     42     12     11     41 
    44     44     37      9     10     11 
    45     45     45     13     12     11 
    46     46     22      2      1     20 
    47     47     36      9      8      7 
    48     48     22      2      3      4 
    49     49     26      4      3      2 
    50     50     28      5      6      7 
    51     51     33      7      6      5 
    52     52     30      6      7      8 
    53     53     40     11     12     13 
    54     54     44     13     12     43 
    55     55     43     12     11     10 
    56     56     39     10      9      8 
    57     57     36      9     10     11 
    58     58     40     11     10     39 
    59     59     41     11     10     38 
    60     60     37      9      8     35 
    61     61     49     15     16     17 
    62     62     47     14     13     12 
    63     63     44     13     14     15 
    64     64     40     11     10     38 
    65     65     45     13     12     42 
    66     66     21      1      2      3 
    67     67     27      4      5      6 
    68     68     25      3      2     23 
    69     69     32      7      6     30 
    70     70     30      6      5      4 
    71     71     48     15     14     46 
    72     72     46     14     13     44 
    73     73     24      3      4      5 
    74     74     48     15     14     13 
    75     75     42     12     11     40 
    76     76     50     18     16     17 
    77     77     48     15     16     18 
    78     78     22      2      1     19 
    79     79     26      4      3     25 
    80     80     27      4      3     24 
    81     81     41     11     10     39 
    82     82     42     12     13     14 
    83     83     31      6      7      8 
    84     84     32      7      6      5 
    85     85     27      4      3      2 
    86     86     49     15     14     13 
    87     87     29      5      6      7 
    88     88     43     12     11     41 
    89     89     37      9      8      7 
    90     90     38     10      9     37 
    91     91     34      8      9     10 
    92     92     35      8      7      6 
    93     93     31      6      5     29 
    94     94     42     12     11     10 
    95     95     18     16     15     14 
    96     96     34      8      7     32 
    97     97     29      5      4     27 
    98     98     24      3      2     23 
    99     99     25      3      2     22 
   100    100     24      3      2      1 
   101    101     33      7      8      9 
   102    102     49     15     14     47 
   103    103     43     12     13     14 
   104    104     20      1      2      3 
   105    105     28      5      4     26 
   106    106     49     15     16     18 
   107    107     26      4      5      6 
   108    108     29      5      4      3 
   109    109     44     13     12     42 
   110    110     36      9      8     34 
   111    111     23      2      1     20 
   112    112     22      2      1     21 
   113    113     40     11     10      9 
   114    114     25      3      2      1 
   115    115     34      8      7     33 
   116    116     35      8      7     32 
   117    117     39     10      9     37 
   118    118     29      5      4     26 
   119    119     28      5      4     27 
   120    120     45     13     12     43 
   121    121     47     14     15     16 
   122    122     44     13     12     11 
   123    123     31      6      5      4 
   124    124     26      4      3     24 
   125    125     36      9      8     35 
   126    126     46     14     13     12 
   127    127     46     14     15     16 
   128    128     38     10     11     12 
   129    129     41     11     10      9 
   130    130     37      9      8     34 
   131    131     23      2      1     19 
   132    132     41     11     12     13 
   133    133     30      6      5     29 
   134    134     31      6      5     28 

Impropers

     1      1     16     17     18     15 
     2      2      1      2     19     20 
     3      3      1      2     19     21 
     4      4      2      1      3     22 
     5      5      2      1      3     23 
     6      6      3      2      4     24 
     7      7      3     25      2      4 
     8      8      4     26      3      5 
     9      9      4     27      5      3 
    10     10      5      4     28      6 
    11     11      5      4     29      6 
    12     12      6      5     30      7 