#C16_anion

49 atoms
4 atom types

48 bonds
4 bond types

93 angles
7 angle types

132 dihedrals
5 dihedral types

31 impropers
2 improper types

-15.64883  34.35117  xlo xhi
0  50.10432  ylo yhi
-1.02687  48.97313  zlo zhi

Masses

1  12.011
2  12.011
3  15.999
4  1.008

Pair Coeffs

1  0.066  3.5
2  0.07  3.55
3  0.21  2.96
4  0.03  2.5

Bond Coeffs

1  268.0  1.529
2  317.0  1.522
3  656.0  1.25
4  340.0  1.09

Angle Coeffs

1  58.35  112.7
2  63.0  111.1
3  70.0  117.0
4  37.5  110.7
5  33.0  107.8
6  80.0  126.0
7  35.0  109.5

Dihedral Coeffs

1  1.3  -0.2  0.2  0.0
2  -2.06  -0.313  0.315  0.0
3  0.0  0.0  0.0  0.0
4  0.0  0.0  0.3  0.0
5  0.0  0.0  -0.1  0.0

Improper Coeffs

1  10.5  -1.0  2.0
2  0.0  -1.0  2.0

Atoms # full

1  1  1  -0.209   1   1   0
2  1  1  -0.1579  -0.519   1   0
3  1  1  -0.1568  -1.07   1   1.42447
4  1  1  -0.1575  -2.596   0.9982   1.42447
5  1  1  -0.1577  -3.139   1.00001   2.85138
6  1  1  -0.1576  -4.665   0.99642   2.85629
7  1  1  -0.1575  -5.201   1.00006   4.28492
8  1  1  -0.1578  -6.725   0.99468   4.29309
9  1  1  -0.1576  -7.26   1.00013   5.72208
10  1  1  -0.1581  -8.785   0.99294   5.73026
11  1  1  -0.1579  -9.322   1.00017   7.15817
12  1  1  -0.1574  -10.848   0.99474   7.15818
13  1  1  -0.1613  -11.401   1.00367   8.58129
14  1  1  -0.1362  -12.928   0.9963   8.56497
15  1  1  -0.2326  -13.502   1.00684   9.97654
16  1  2   0.428  -15.031   1.00201   10.04502
17  1  3  -0.6313  -15.649   0.99002   8.94551
18  1  3  -0.6313  -15.494   1.0094   11.22198
19  1  4   0.0693   1.378   1.0013  -1.02687
20  1  4   0.0693   1.39   0.11102   0.50532
21  1  4   0.0693   1.39   1.88765   0.50754
22  1  4   0.0772  -0.881   0.11713  -0.53928
23  1  4   0.0772  -0.881   1.88349  -0.53824
24  1  4   0.078  -0.703   1.88373   1.9604
25  1  4   0.078  -0.7   0.11766   1.96118
26  1  4   0.0781  -2.965   0.11316   0.89188
27  1  4   0.0781  -2.967   1.88041   0.88891
28  1  4   0.0778  -2.771   1.88546   3.38445
29  1  4   0.0778  -2.767   0.11861   3.38829
30  1  4   0.078  -5.033   0.11031   2.32516
31  1  4   0.078  -5.038   1.87665   2.31938
32  1  4   0.0773  -4.832   1.88685   4.81489
33  1  4   0.0773  -4.826   0.12009   4.8217
34  1  4   0.0777  -7.094   0.10766   3.76312
35  1  4   0.0777  -7.1   1.87449   3.75489
36  1  4   0.0762  -6.892   1.88818   6.25009
37  1  4   0.0762  -6.883   0.12153   6.25996
38  1  4   0.0768  -9.151   0.10432   5.20164
39  1  4   0.0768  -9.16   1.87076   5.18952
40  1  4   0.0735  -8.954   1.88824   7.68625
41  1  4   0.0735  -8.948   0.12163   7.69753
42  1  4   0.0756  -11.212   0.10649   6.62712
43  1  4   0.0756  -11.218   1.8722   6.61353
44  1  4   0.0651  -11.04   1.89314   9.11182
45  1  4   0.0651  -11.031   0.12595   9.1253
46  1  4   0.0794  -13.283   0.1076   8.02785
47  1  4   0.0794  -13.291   1.87142   8.01127
48  1  4   0.0589  -13.145   1.89659   10.5093
49  1  4   0.0589  -13.138   0.12764   10.52415

Bonds

1  1  2  1
2  1  3  2
3  1  4  3
4  1  5  4
5  1  6  5
6  1  7  6
7  1  8  7
8  1  9  8
9  1  10  9
10  1  11  10
11  1  12  11
12  1  13  12
13  1  14  13
14  1  15  14
15  2  16  15
16  3  17  16
17  3  18  16
18  4  19  1
19  4  20  1
20  4  21  1
21  4  22  2
22  4  23  2
23  4  24  3
24  4  25  3
25  4  26  4
26  4  27  4
27  4  28  5
28  4  29  5
29  4  30  6
30  4  31  6
31  4  32  7
32  4  33  7
33  4  34  8
34  4  35  8
35  4  36  9
36  4  37  9
37  4  38  10
38  4  39  10
39  4  40  11
40  4  41  11
41  4  42  12
42  4  43  12
43  4  44  13
44  4  45  13
45  4  46  14
46  4  47  14
47  4  48  15
48  4  49  15

Angles

1  1  1  2  3
2  1  2  3  4
3  1  3  4  5
4  1  4  5  6
5  1  5  6  7
6  1  6  7  8
7  1  7  8  9
8  1  8  9  10
9  1  9  10  11
10  1  10  11  12
11  1  11  12  13
12  1  12  13  14
13  1  13  14  15
14  2  14  15  16
15  3  15  16  17
16  3  15  16  18
17  4  2  1  19
18  4  2  1  20
19  4  2  1  21
20  4  1  2  22
21  4  1  2  23
22  4  2  3  24
23  4  2  3  25
24  4  3  4  26
25  4  3  4  27
26  4  4  5  28
27  4  4  5  29
28  4  5  6  30
29  4  5  6  31
30  4  6  7  32
31  4  6  7  33
32  4  7  8  34
33  4  7  8  35
34  4  8  9  36
35  4  8  9  37
36  4  9  10  38
37  4  9  10  39
38  4  10  11  40
39  4  10  11  41
40  4  11  12  42
41  4  11  12  43
42  4  12  13  44
43  4  12  13  45
44  4  13  14  46
45  4  13  14  47
46  4  14  15  48
47  4  14  15  49
48  4  15  14  47
49  4  11  10  38
50  4  12  11  40
51  5  19  1  21
52  4  4  3  24
53  5  46  14  47
54  5  20  1  21
55  4  5  4  27
56  4  7  6  31
57  5  24  3  25
58  4  14  13  45
59  4  5  4  26
60  4  9  8  34
61  4  8  7  32
62  4  15  14  46
63  4  8  7  33
64  5  48  15  49
65  5  38  10  39
66  4  6  5  28
67  4  13  12  42
68  5  42  12  43
69  5  32  7  33
70  5  44  13  45
71  6  17  16  18
72  4  4  3  25
73  5  26  4  27
74  5  22  2  23
75  4  13  12  43
76  5  28  5  29
77  5  36  9  37
78  5  34  8  35
79  4  7  6  30
80  7  16  15  48
81  5  30  6  31
82  4  11  10  39
83  4  3  2  22
84  4  3  2  23
85  4  9  8  35
86  7  16  15  49
87  4  10  9  37
88  4  10  9  36
89  5  40  11  41
90  5  19  1  20
91  4  6  5  29
92  4  12  11  41
93  4  14  13  44

Dihedrals

1  1  4  3  2  1
2  1  5  4  3  2
3  1  6  5  4  3
4  1  7  6  5  4
5  1  8  7  6  5
6  1  9  8  7  6
7  1  10  9  8  7
8  1  11  10  9  8
9  1  12  11  10  9
10  1  13  12  11  10
11  1  14  13  12  11
12  1  15  14  13  12
13  2  16  15  14  13
14  3  17  16  15  14
15  4  19  1  2  3
16  4  34  8  7  6
17  4  38  10  9  8
18  4  47  14  13  44
19  4  25  3  4  5
20  4  47  14  13  45
21  4  48  15  14  47
22  4  49  15  14  46
23  4  35  8  9  10
24  4  23  2  1  21
25  3  48  15  16  17
26  4  45  13  14  15
27  4  39  10  9  36
28  4  39  10  11  12
29  4  33  7  6  30
30  4  32  7  6  31
31  4  32  7  8  9
32  4  33  7  6  31
33  4  28  5  4  3
34  4  46  14  13  45
35  4  23  2  3  4
36  4  24  3  2  22
37  4  27  4  3  25
38  4  38  10  9  36
39  4  30  6  5  28
40  4  35  8  7  33
41  4  43  12  11  40
42  4  42  12  11  41
43  4  37  9  10  11
44  4  45  13  12  11
45  4  22  2  1  20
46  4  36  9  8  7
47  4  22  2  3  4
48  4  26  4  3  2
49  4  28  5  6  7
50  4  33  7  6  5
51  4  30  6  7  8
52  4  40  11  12  13
53  4  44  13  12  43
54  4  43  12  11  10
55  4  39  10  9  8
56  4  36  9  10  11
57  4  40  11  10  39
58  4  41  11  10  38
59  4  37  9  8  35
60  3  49  15  16  17
61  4  47  14  13  12
62  4  44  13  14  15
63  4  40  11  10  38
64  4  45  13  12  42
65  4  21  1  2  3
66  4  27  4  5  6
67  4  25  3  2  23
68  4  32  7  6  30
69  4  30  6  5  4
70  4  48  15  14  46
71  4  46  14  13  44
72  4  24  3  4  5
73  4  48  15  14  13
74  4  42  12  11  40
75  3  48  15  16  18
76  4  22  2  1  19
77  4  26  4  3  25
78  4  27  4  3  24
79  4  41  11  10  39
80  4  42  12  13  14
81  4  31  6  7  8
82  4  32  7  6  5
83  4  27  4  3  2
84  4  49  15  14  13
85  4  29  5  6  7
86  4  43  12  11  41
87  4  37  9  8  7
88  4  38  10  9  37
89  4  34  8  9  10
90  4  35  8  7  6
91  4  31  6  5  29
92  4  42  12  11  10
93  3  18  16  15  14
94  4  34  8  7  32
95  4  29  5  4  27
96  4  24  3  2  23
97  4  25  3  2  22
98  4  24  3  2  1
99  4  33  7  8  9
100  4  49  15  14  47
101  4  43  12  13  14
102  4  20  1  2  3
103  4  28  5  4  26
104  3  49  15  16  18
105  4  26  4  5  6
106  4  29  5  4  3
107  4  44  13  12  42
108  4  36  9  8  34
109  4  23  2  1  20
110  4  22  2  1  21
111  4  40  11  10  9
112  4  25  3  2  1
113  4  34  8  7  33
114  4  35  8  7  32
115  4  39  10  9  37
116  4  29  5  4  26
117  4  28  5  4  27
118  4  45  13  12  43
119  5  47  14  15  16
120  4  44  13  12  11
121  4  31  6  5  4
122  4  26  4  3  24
123  4  36  9  8  35
124  4  46  14  13  12
125  5  46  14  15  16
126  4  38  10  11  12
127  4  41  11  10  9
128  4  37  9  8  34
129  4  23  2  1  19
130  4  41  11  12  13
131  4  30  6  5  29
132  4  31  6  5  28

Impropers

1  1  16  17  18  15
2  2  1  2  19  20
3  2  1  2  19  21
4  2  2  1  3  22
5  2  2  1  3  23
6  2  3  2  4  24
7  2  3  25  2  4
8  2  4  26  3  5
9  2  4  27  5  3
10  2  5  4  28  6
11  2  5  4  29  6
12  2  6  5  30  7
13  2  6  7  5  31
14  2  7  8  6  32
15  2  7  33  6  8
16  2  8  9  34  7
17  2  8  9  35  7
18  2  9  10  36  8
19  2  9  10  37  8
20  2  10  9  11  38
21  2  10  9  11  39
22  2  11  10  12  40
23  2  11  41  10  12
24  2  12  42  11  13
25  2  12  43  13  11
26  2  13  12  44  14
27  2  13  12  45  14
28  2  14  13  46  15
29  2  14  15  13  47
30  2  15  16  14  48
31  2  15  49  14  16
