LAMMPS data file Created by LigParGen - (Written by Leela S. Dodda)

      49 atoms
      48 bonds
      93 angles
     132 dihedrals
      31 impropers
 
      49 atom types
      48 bond types
      93 angle types
     132 dihedral types
      31 improper types
 
  -15.648830    34.351170 xlo xhi
    0.104320    50.104320 ylo yhi
   -1.026870    48.973130 zlo zhi

Masses

       1     12.011  
       2     12.011  
       3     12.011  
       4     12.011  
       5     12.011  
       6     12.011  
       7     12.011  
       8     12.011  
       9     12.011  
      10     12.011  
      11     12.011  
      12     12.011  
      13     12.011  
      14     12.011  
      15     12.011  
      16     12.011  
      17     15.999  
      18     15.999  
      19      1.008  
      20      1.008  
      21      1.008  
      22      1.008  
      23      1.008  
      24      1.008  
      25      1.008  
      26      1.008  
      27      1.008  
      28      1.008  
      29      1.008  
      30      1.008  
      31      1.008  
      32      1.008  
      33      1.008  
      34      1.008  
      35      1.008  
      36      1.008  
      37      1.008  
      38      1.008  
      39      1.008  
      40      1.008  
      41      1.008  
      42      1.008  
      43      1.008  
      44      1.008  
      45      1.008  
      46      1.008  
      47      1.008  
      48      1.008  
      49      1.008  

Pair Coeffs 

       1      0.066  3.5000000 
       2      0.066  3.5000000 
       3      0.066  3.5000000 
       4      0.066  3.5000000 
       5      0.066  3.5000000 
       6      0.066  3.5000000 
       7      0.066  3.5000000 
       8      0.066  3.5000000 
       9      0.066  3.5000000 
      10      0.066  3.5000000 
      11      0.066  3.5000000 
      12      0.066  3.5000000 
      13      0.066  3.5000000 
      14      0.066  3.5000000 
      15      0.066  3.5000000 
      16      0.070  3.5500000 
      17      0.210  2.9600000 
      18      0.210  2.9600000 
      19      0.030  2.5000000 
      20      0.030  2.5000000 
      21      0.030  2.5000000 
      22      0.030  2.5000000 
      23      0.030  2.5000000 
      24      0.030  2.5000000 
      25      0.030  2.5000000 
      26      0.030  2.5000000 
      27      0.030  2.5000000 
      28      0.030  2.5000000 
      29      0.030  2.5000000 
      30      0.030  2.5000000 
      31      0.030  2.5000000 
      32      0.030  2.5000000 
      33      0.030  2.5000000 
      34      0.030  2.5000000 
      35      0.030  2.5000000 
      36      0.030  2.5000000 
      37      0.030  2.5000000 
      38      0.030  2.5000000 
      39      0.030  2.5000000 
      40      0.030  2.5000000 
      41      0.030  2.5000000 
      42      0.030  2.5000000 
      43      0.030  2.5000000 
      44      0.030  2.5000000 
      45      0.030  2.5000000 
      46      0.030  2.5000000 
      47      0.030  2.5000000 
      48      0.030  2.5000000 
      49      0.030  2.5000000 

Bond Coeffs 

       1   268.0000     1.5290 
       2   268.0000     1.5290 
       3   268.0000     1.5290 
       4   268.0000     1.5290 
       5   268.0000     1.5290 
       6   268.0000     1.5290 
       7   268.0000     1.5290 
       8   268.0000     1.5290 
       9   268.0000     1.5290 
      10   268.0000     1.5290 
      11   268.0000     1.5290 
      12   268.0000     1.5290 
      13   268.0000     1.5290 
      14   268.0000     1.5290 
      15   317.0000     1.5220 
      16   656.0000     1.2500 
      17   656.0000     1.2500 
      18   340.0000     1.0900 
      19   340.0000     1.0900 
      20   340.0000     1.0900 
      21   340.0000     1.0900 
      22   340.0000     1.0900 
      23   340.0000     1.0900 
      24   340.0000     1.0900 
      25   340.0000     1.0900 
      26   340.0000     1.0900 
      27   340.0000     1.0900 
      28   340.0000     1.0900 
      29   340.0000     1.0900 
      30   340.0000     1.0900 
      31   340.0000     1.0900 
      32   340.0000     1.0900 
      33   340.0000     1.0900 
      34   340.0000     1.0900 
      35   340.0000     1.0900 
      36   340.0000     1.0900 
      37   340.0000     1.0900 
      38   340.0000     1.0900 
      39   340.0000     1.0900 
      40   340.0000     1.0900 
      41   340.0000     1.0900 
      42   340.0000     1.0900 
      43   340.0000     1.0900 
      44   340.0000     1.0900 
      45   340.0000     1.0900 
      46   340.0000     1.0900 
      47   340.0000     1.0900 
      48   340.0000     1.0900 

Angle Coeffs 

       1     58.350    112.700
       2     58.350    112.700
       3     58.350    112.700
       4     58.350    112.700
       5     58.350    112.700
       6     58.350    112.700
       7     58.350    112.700
       8     58.350    112.700
       9     58.350    112.700
      10     58.350    112.700
      11     58.350    112.700
      12     58.350    112.700
      13     58.350    112.700
      14     63.000    111.100
      15     70.000    117.000
      16     70.000    117.000
      17     37.500    110.700
      18     37.500    110.700
      19     37.500    110.700
      20     37.500    110.700
      21     37.500    110.700
      22     37.500    110.700
      23     37.500    110.700
      24     37.500    110.700
      25     37.500    110.700
      26     37.500    110.700
      27     37.500    110.700
      28     37.500    110.700
      29     37.500    110.700
      30     37.500    110.700
      31     37.500    110.700
      32     37.500    110.700
      33     37.500    110.700
      34     37.500    110.700
      35     37.500    110.700
      36     37.500    110.700
      37     37.500    110.700
      38     37.500    110.700
      39     37.500    110.700
      40     37.500    110.700
      41     37.500    110.700
      42     37.500    110.700
      43     37.500    110.700
      44     37.500    110.700
      45     37.500    110.700
      46     37.500    110.700
      47     37.500    110.700
      48     37.500    110.700
      49     37.500    110.700
      50     37.500    110.700
      51     33.000    107.800
      52     37.500    110.700
      53     33.000    107.800
      54     33.000    107.800
      55     37.500    110.700
      56     37.500    110.700
      57     33.000    107.800
      58     37.500    110.700
      59     37.500    110.700
      60     37.500    110.700
      61     37.500    110.700
      62     37.500    110.700
      63     37.500    110.700
      64     33.000    107.800
      65     33.000    107.800
      66     37.500    110.700
      67     37.500    110.700
      68     33.000    107.800
      69     33.000    107.800
      70     33.000    107.800
      71     80.000    126.000
      72     37.500    110.700
      73     33.000    107.800
      74     33.000    107.800
      75     37.500    110.700
      76     33.000    107.800
      77     33.000    107.800
      78     33.000    107.800
      79     37.500    110.700
      80     35.000    109.500
      81     33.000    107.800
      82     37.500    110.700
      83     37.500    110.700
      84     37.500    110.700
      85     37.500    110.700
      86     35.000    109.500
      87     37.500    110.700
      88     37.500    110.700
      89     33.000    107.800
      90     33.000    107.800
      91     37.500    110.700
      92     37.500    110.700
      93     37.500    110.700

Dihedral Coeffs  

       1      1.300     -0.200      0.200      0.000 
       2      1.300     -0.200      0.200      0.000 
       3      1.300     -0.200      0.200      0.000 
       4      1.300     -0.200      0.200      0.000 
       5      1.300     -0.200      0.200      0.000 
       6      1.300     -0.200      0.200      0.000 
       7      1.300     -0.200      0.200      0.000 
       8      1.300     -0.200      0.200      0.000 
       9      1.300     -0.200      0.200      0.000 
      10      1.300     -0.200      0.200      0.000 
      11      1.300     -0.200      0.200      0.000 
      12      1.300     -0.200      0.200      0.000 
      13     -2.060     -0.313      0.315      0.000 
      14      0.000      0.000      0.000      0.000 
      15      0.000      0.000      0.300      0.000 
      16      0.000      0.000      0.300      0.000 
      17      0.000      0.000      0.300      0.000 
      18      0.000      0.000      0.300      0.000 
      19      0.000      0.000      0.300      0.000 
      20      0.000      0.000      0.300      0.000 
      21      0.000      0.000      0.300      0.000 
      22      0.000      0.000      0.300      0.000 
      23      0.000      0.000      0.300      0.000 
      24      0.000      0.000      0.300      0.000 
      25      0.000      0.000      0.000      0.000 
      26      0.000      0.000      0.300      0.000 
      27      0.000      0.000      0.300      0.000 
      28      0.000      0.000      0.300      0.000 
      29      0.000      0.000      0.300      0.000 
      30      0.000      0.000      0.300      0.000 
      31      0.000      0.000      0.300      0.000 
      32      0.000      0.000      0.300      0.000 
      33      0.000      0.000      0.300      0.000 
      34      0.000      0.000      0.300      0.000 
      35      0.000      0.000      0.300      0.000 
      36      0.000      0.000      0.300      0.000 
      37      0.000      0.000      0.300      0.000 
      38      0.000      0.000      0.300      0.000 
      39      0.000      0.000      0.300      0.000 
      40      0.000      0.000      0.300      0.000 
      41      0.000      0.000      0.300      0.000 
      42      0.000      0.000      0.300      0.000 
      43      0.000      0.000      0.300      0.000 
      44      0.000      0.000      0.300      0.000 
      45      0.000      0.000      0.300      0.000 
      46      0.000      0.000      0.300      0.000 
      47      0.000      0.000      0.300      0.000 
      48      0.000      0.000      0.300      0.000 
      49      0.000      0.000      0.300      0.000 
      50      0.000      0.000      0.300      0.000 
      51      0.000      0.000      0.300      0.000 
      52      0.000      0.000      0.300      0.000 
      53      0.000      0.000      0.300      0.000 
      54      0.000      0.000      0.300      0.000 
      55      0.000      0.000      0.300      0.000 
      56      0.000      0.000      0.300      0.000 
      57      0.000      0.000      0.300      0.000 
      58      0.000      0.000      0.300      0.000 
      59      0.000      0.000      0.300      0.000 
      60      0.000      0.000      0.000      0.000 
      61      0.000      0.000      0.300      0.000 
      62      0.000      0.000      0.300      0.000 
      63      0.000      0.000      0.300      0.000 
      64      0.000      0.000      0.300      0.000 
      65      0.000      0.000      0.300      0.000 
      66      0.000      0.000      0.300      0.000 
      67      0.000      0.000      0.300      0.000 
      68      0.000      0.000      0.300      0.000 
      69      0.000      0.000      0.300      0.000 
      70      0.000      0.000      0.300      0.000 
      71      0.000      0.000      0.300      0.000 
      72      0.000      0.000      0.300      0.000 
      73      0.000      0.000      0.300      0.000 
      74      0.000      0.000      0.300      0.000 
      75      0.000      0.000      0.000      0.000 
      76      0.000      0.000      0.300      0.000 
      77      0.000      0.000      0.300      0.000 
      78      0.000      0.000      0.300      0.000 
      79      0.000      0.000      0.300      0.000 
      80      0.000      0.000      0.300      0.000 
      81      0.000      0.000      0.300      0.000 
      82      0.000      0.000      0.300      0.000 
      83      0.000      0.000      0.300      0.000 
      84      0.000      0.000      0.300      0.000 
      85      0.000      0.000      0.300      0.000 
      86      0.000      0.000      0.300      0.000 
      87      0.000      0.000      0.300      0.000 
      88      0.000      0.000      0.300      0.000 
      89      0.000      0.000      0.300      0.000 
      90      0.000      0.000      0.300      0.000 
      91      0.000      0.000      0.300      0.000 
      92      0.000      0.000      0.300      0.000 
      93      0.000      0.000      0.000      0.000 
      94      0.000      0.000      0.300      0.000 
      95      0.000      0.000      0.300      0.000 
      96      0.000      0.000      0.300      0.000 
      97      0.000      0.000      0.300      0.000 
      98      0.000      0.000      0.300      0.000 
      99      0.000      0.000      0.300      0.000 
     100      0.000      0.000      0.300      0.000 
     101      0.000      0.000      0.300      0.000 
     102      0.000      0.000      0.300      0.000 
     103      0.000      0.000      0.300      0.000 
     104      0.000      0.000      0.000      0.000 
     105      0.000      0.000      0.300      0.000 
     106      0.000      0.000      0.300      0.000 
     107      0.000      0.000      0.300      0.000 
     108      0.000      0.000      0.300      0.000 
     109      0.000      0.000      0.300      0.000 
     110      0.000      0.000      0.300      0.000 
     111      0.000      0.000      0.300      0.000 
     112      0.000      0.000      0.300      0.000 
     113      0.000      0.000      0.300      0.000 
     114      0.000      0.000      0.300      0.000 
     115      0.000      0.000      0.300      0.000 
     116      0.000      0.000      0.300      0.000 
     117      0.000      0.000      0.300      0.000 
     118      0.000      0.000      0.300      0.000 
     119      0.000      0.000     -0.100      0.000 
     120      0.000      0.000      0.300      0.000 
     121      0.000      0.000      0.300      0.000 
     122      0.000      0.000      0.300      0.000 
     123      0.000      0.000      0.300      0.000 
     124      0.000      0.000      0.300      0.000 
     125      0.000      0.000     -0.100      0.000 
     126      0.000      0.000      0.300      0.000 
     127      0.000      0.000      0.300      0.000 
     128      0.000      0.000      0.300      0.000 
     129      0.000      0.000      0.300      0.000 
     130      0.000      0.000      0.300      0.000 
     131      0.000      0.000      0.300      0.000 
     132      0.000      0.000      0.300      0.000 

Improper Coeffs 

       1     10.500      -1       2 
       2      0.000      -1       2 
       3      0.000      -1       2 
       4      0.000      -1       2 
       5      0.000      -1       2 
       6      0.000      -1       2 
       7      0.000      -1       2 
       8      0.000      -1       2 
       9      0.000      -1       2 
      10      0.000      -1       2 
      11      0.000      -1       2 
      12      0.000      -1       2 
      13      0.000      -1       2 
      14      0.000      -1       2 
      15      0.000      -1       2 
      16      0.000      -1       2 
      17      0.000      -1       2 
      18      0.000      -1       2 
      19      0.000      -1       2 
      20      0.000      -1       2 
      21      0.000      -1       2 
      22      0.000      -1       2 
      23      0.000      -1       2 
      24      0.000      -1       2 
      25      0.000      -1       2 
      26      0.000      -1       2 
      27      0.000      -1       2 
      28      0.000      -1       2 
      29      0.000      -1       2 
      30      0.000      -1       2 
      31      0.000      -1       2 

Atoms 

     1      1      1 -0.20900000    1.000  1.00000  0.00000
     2      1      2 -0.15790000   -0.519  1.00000  0.00000
     3      1      3 -0.15680000   -1.070  1.00000  1.42447
     4      1      4 -0.15750000   -2.596  0.99820  1.42447
     5      1      5 -0.15770000   -3.139  1.00001  2.85138
     6      1      6 -0.15760000   -4.665  0.99642  2.85629
     7      1      7 -0.15750000   -5.201  1.00006  4.28492
     8      1      8 -0.15780000   -6.725  0.99468  4.29309
     9      1      9 -0.15760000   -7.260  1.00013  5.72208
    10      1     10 -0.15810000   -8.785  0.99294  5.73026
    11      1     11 -0.15790000   -9.322  1.00017  7.15817
    12      1     12 -0.15740000  -10.848  0.99474  7.15818
    13      1     13 -0.16130000  -11.401  1.00367  8.58129
    14      1     14 -0.13620000  -12.928  0.99630  8.56497
    15      1     15 -0.23260000  -13.502  1.00684  9.97654
    16      1     16 0.42800000  -15.031  1.00201 10.04502
    17      1     17 -0.63130000  -15.649  0.99002  8.94551
    18      1     18 -0.63130000  -15.494  1.00940 11.22198
    19      1     19 0.06930000    1.378  1.00130 -1.02687
    20      1     20 0.06930000    1.390  0.11102  0.50532
    21      1     21 0.06930000    1.390  1.88765  0.50754
    22      1     22 0.07720000   -0.881  0.11713 -0.53928
    23      1     23 0.07720000   -0.881  1.88349 -0.53824
    24      1     24 0.07800000   -0.703  1.88373  1.96040
    25      1     25 0.07800000   -0.700  0.11766  1.96118
    26      1     26 0.07810000   -2.965  0.11316  0.89188
    27      1     27 0.07810000   -2.967  1.88041  0.88891
    28      1     28 0.07780000   -2.771  1.88546  3.38445
    29      1     29 0.07780000   -2.767  0.11861  3.38829
    30      1     30 0.07800000   -5.033  0.11031  2.32516
    31      1     31 0.07800000   -5.038  1.87665  2.31938
    32      1     32 0.07730000   -4.832  1.88685  4.81489
    33      1     33 0.07730000   -4.826  0.12009  4.82170
    34      1     34 0.07770000   -7.094  0.10766  3.76312
    35      1     35 0.07770000   -7.100  1.87449  3.75489
    36      1     36 0.07620000   -6.892  1.88818  6.25009
    37      1     37 0.07620000   -6.883  0.12153  6.25996
    38      1     38 0.07680000   -9.151  0.10432  5.20164
    39      1     39 0.07680000   -9.160  1.87076  5.18952
    40      1     40 0.07350000   -8.954  1.88824  7.68625
    41      1     41 0.07350000   -8.948  0.12163  7.69753
    42      1     42 0.07560000  -11.212  0.10649  6.62712
    43      1     43 0.07560000  -11.218  1.87220  6.61353
    44      1     44 0.06510000  -11.040  1.89314  9.11182
    45      1     45 0.06510000  -11.031  0.12595  9.12530
    46      1     46 0.07940000  -13.283  0.10760  8.02785
    47      1     47 0.07940000  -13.291  1.87142  8.01127
    48      1     48 0.05890000  -13.145  1.89659 10.50930
    49      1     49 0.05890000  -13.138  0.12764 10.52415

Bonds 

     1      1      2      1
     2      2      3      2
     3      3      4      3
     4      4      5      4
     5      5      6      5
     6      6      7      6
     7      7      8      7
     8      8      9      8
     9      9     10      9
    10     10     11     10
    11     11     12     11
    12     12     13     12
    13     13     14     13
    14     14     15     14
    15     15     16     15
    16     16     17     16
    17     17     18     16
    18     18     19      1
    19     19     20      1
    20     20     21      1
    21     21     22      2
    22     22     23      2
    23     23     24      3
    24     24     25      3
    25     25     26      4
    26     26     27      4
    27     27     28      5
    28     28     29      5
    29     29     30      6
    30     30     31      6
    31     31     32      7
    32     32     33      7
    33     33     34      8
    34     34     35      8
    35     35     36      9
    36     36     37      9
    37     37     38     10
    38     38     39     10
    39     39     40     11
    40     40     41     11
    41     41     42     12
    42     42     43     12
    43     43     44     13
    44     44     45     13
    45     45     46     14
    46     46     47     14
    47     47     48     15
    48     48     49     15

Angles 

     1      1      1      2      3
     2      2      2      3      4
     3      3      3      4      5
     4      4      4      5      6
     5      5      5      6      7
     6      6      6      7      8
     7      7      7      8      9
     8      8      8      9     10
     9      9      9     10     11
    10     10     10     11     12
    11     11     11     12     13
    12     12     12     13     14
    13     13     13     14     15
    14     14     14     15     16
    15     15     15     16     17
    16     16     15     16     18
    17     17      2      1     19
    18     18      2      1     20
    19     19      2      1     21
    20     20      1      2     22
    21     21      1      2     23
    22     22      2      3     24
    23     23      2      3     25
    24     24      3      4     26
    25     25      3      4     27
    26     26      4      5     28
    27     27      4      5     29
    28     28      5      6     30
    29     29      5      6     31
    30     30      6      7     32
    31     31      6      7     33
    32     32      7      8     34
    33     33      7      8     35
    34     34      8      9     36
    35     35      8      9     37
    36     36      9     10     38
    37     37      9     10     39
    38     38     10     11     40
    39     39     10     11     41
    40     40     11     12     42
    41     41     11     12     43
    42     42     12     13     44
    43     43     12     13     45
    44     44     13     14     46
    45     45     13     14     47
    46     46     14     15     48
    47     47     14     15     49
    48     48     15     14     47
    49     49     11     10     38
    50     50     12     11     40
    51     51     19      1     21
    52     52      4      3     24
    53     53     46     14     47
    54     54     20      1     21
    55     55      5      4     27
    56     56      7      6     31
    57     57     24      3     25
    58     58     14     13     45
    59     59      5      4     26
    60     60      9      8     34
    61     61      8      7     32
    62     62     15     14     46
    63     63      8      7     33
    64     64     48     15     49
    65     65     38     10     39
    66     66      6      5     28
    67     67     13     12     42
    68     68     42     12     43
    69     69     32      7     33
    70     70     44     13     45
    71     71     17     16     18
    72     72      4      3     25
    73     73     26      4     27
    74     74     22      2     23
    75     75     13     12     43
    76     76     28      5     29
    77     77     36      9     37
    78     78     34      8     35
    79     79      7      6     30
    80     80     16     15     48
    81     81     30      6     31
    82     82     11     10     39
    83     83      3      2     22
    84     84      3      2     23
    85     85      9      8     35
    86     86     16     15     49
    87     87     10      9     37
    88     88     10      9     36
    89     89     40     11     41
    90     90     19      1     20
    91     91      6      5     29
    92     92     12     11     41
    93     93     14     13     44

Dihedrals

     1      1      4      3      2      1 
     2      2      5      4      3      2 
     3      3      6      5      4      3 
     4      4      7      6      5      4 
     5      5      8      7      6      5 
     6      6      9      8      7      6 
     7      7     10      9      8      7 
     8      8     11     10      9      8 
     9      9     12     11     10      9 
    10     10     13     12     11     10 
    11     11     14     13     12     11 
    12     12     15     14     13     12 
    13     13     16     15     14     13 
    14     14     17     16     15     14 
    15     15     19      1      2      3 
    16     16     34      8      7      6 
    17     17     38     10      9      8 
    18     18     47     14     13     44 
    19     19     25      3      4      5 
    20     20     47     14     13     45 
    21     21     48     15     14     47 
    22     22     49     15     14     46 
    23     23     35      8      9     10 
    24     24     23      2      1     21 
    25     25     48     15     16     17 
    26     26     45     13     14     15 
    27     27     39     10      9     36 
    28     28     39     10     11     12 
    29     29     33      7      6     30 
    30     30     32      7      6     31 
    31     31     32      7      8      9 
    32     32     33      7      6     31 
    33     33     28      5      4      3 
    34     34     46     14     13     45 
    35     35     23      2      3      4 
    36     36     24      3      2     22 
    37     37     27      4      3     25 
    38     38     38     10      9     36 
    39     39     30      6      5     28 
    40     40     35      8      7     33 
    41     41     43     12     11     40 
    42     42     42     12     11     41 
    43     43     37      9     10     11 
    44     44     45     13     12     11 
    45     45     22      2      1     20 
    46     46     36      9      8      7 
    47     47     22      2      3      4 
    48     48     26      4      3      2 
    49     49     28      5      6      7 
    50     50     33      7      6      5 
    51     51     30      6      7      8 
    52     52     40     11     12     13 
    53     53     44     13     12     43 
    54     54     43     12     11     10 
    55     55     39     10      9      8 
    56     56     36      9     10     11 
    57     57     40     11     10     39 
    58     58     41     11     10     38 
    59     59     37      9      8     35 
    60     60     49     15     16     17 
    61     61     47     14     13     12 
    62     62     44     13     14     15 
    63     63     40     11     10     38 
    64     64     45     13     12     42 
    65     65     21      1      2      3 
    66     66     27      4      5      6 
    67     67     25      3      2     23 
    68     68     32      7      6     30 
    69     69     30      6      5      4 
    70     70     48     15     14     46 
    71     71     46     14     13     44 
    72     72     24      3      4      5 
    73     73     48     15     14     13 
    74     74     42     12     11     40 
    75     75     48     15     16     18 
    76     76     22      2      1     19 
    77     77     26      4      3     25 
    78     78     27      4      3     24 
    79     79     41     11     10     39 
    80     80     42     12     13     14 
    81     81     31      6      7      8 
    82     82     32      7      6      5 
    83     83     27      4      3      2 
    84     84     49     15     14     13 
    85     85     29      5      6      7 
    86     86     43     12     11     41 
    87     87     37      9      8      7 
    88     88     38     10      9     37 
    89     89     34      8      9     10 
    90     90     35      8      7      6 
    91     91     31      6      5     29 
    92     92     42     12     11     10 
    93     93     18     16     15     14 
    94     94     34      8      7     32 
    95     95     29      5      4     27 
    96     96     24      3      2     23 
    97     97     25      3      2     22 
    98     98     24      3      2      1 
    99     99     33      7      8      9 
   100    100     49     15     14     47 
   101    101     43     12     13     14 
   102    102     20      1      2      3 
   103    103     28      5      4     26 
   104    104     49     15     16     18 
   105    105     26      4      5      6 
   106    106     29      5      4      3 
   107    107     44     13     12     42 
   108    108     36      9      8     34 
   109    109     23      2      1     20 
   110    110     22      2      1     21 
   111    111     40     11     10      9 
   112    112     25      3      2      1 
   113    113     34      8      7     33 
   114    114     35      8      7     32 
   115    115     39     10      9     37 
   116    116     29      5      4     26 
   117    117     28      5      4     27 
   118    118     45     13     12     43 
   119    119     47     14     15     16 
   120    120     44     13     12     11 
   121    121     31      6      5      4 
   122    122     26      4      3     24 
   123    123     36      9      8     35 
   124    124     46     14     13     12 
   125    125     46     14     15     16 
   126    126     38     10     11     12 
   127    127     41     11     10      9 
   128    128     37      9      8     34 
   129    129     23      2      1     19 
   130    130     41     11     12     13 
   131    131     30      6      5     29 
   132    132     31      6      5     28 

Impropers

     1      1     16     17     18     15 
     2      2      1      2     19     20 
     3      3      1      2     19     21 
     4      4      2      1      3     22 
     5      5      2      1      3     23 
     6      6      3      2      4     24 
     7      7      3     25      2      4 
     8      8      4     26      3      5 
     9      9      4     27      5      3 
    10     10      5      4     28      6 
    11     11      5      4     29      6 
    12     12      6      5     30      7 
    13     13      6      7      5     31 
    14     14      7      8      6     32 
    15     15      7     33      6      8 
    16     16      8      9     34      7 
    17     17      8      9     35      7 
    18     18      9     10     36      8 
    19     19      9     10     37      8 
    20     20     10      9     11     38 
    21     21     10      9     11     39 
    22     22     11     10     12     40 