#C16_acid

50 atoms
6 atom types

49 bonds
6 bond types

94 angles
9 angle types

134 dihedrals
8 dihedral types

31 impropers
2 improper types

-15.72091  34.27909  xlo xhi
0  50.11266  ylo yhi
-1.02626  48.97374  zlo zhi

Masses

1  12.011
2  12.011
3  15.999
4  15.999
5  1.008
6  1.008

Pair Coeffs

1  0.066  3.5
2  0.07  3.55
3  0.21  2.96
4  0.17  3.12
5  0.03  2.5
6  0.0  0.0

Bond Coeffs

1  268.0  1.529
2  317.0  1.522
3  570.0  1.229
4  450.0  1.364
5  340.0  1.09
6  553.0  0.945

Angle Coeffs

1  58.35  112.7
2  63.0  111.1
3  80.0  120.4
4  70.0  108.0
5  37.5  110.7
6  35.0  113.0
7  33.0  107.8
8  80.0  121.0
9  35.0  109.5

Dihedral Coeffs

1  1.3  -0.2  0.2  0.0
2  -2.06  -0.313  0.315  0.0
3  0.0  0.0  0.0  0.0
4  0.0  0.0  0.3  0.0
5  1.5  5.5  0.0  0.0
6  0.0  5.5  0.0  0.0
7  1.0  0.546  0.45  0.0
8  0.0  0.0  -0.1  0.0

Improper Coeffs

1  10.5  -1.0  2.0
2  0.0  -1.0  2.0

Atoms # full

1  1  1  -0.2388   1   1   0
2  1  1  -0.1796  -0.52   1   0
3  1  1  -0.1786  -1.071   1   1.42353
4  1  1  -0.1794  -2.598   1.0018   1.42353
5  1  1  -0.1793  -3.142   0.99999   2.84994
6  1  1  -0.1793  -4.668   0.99998   2.8532
7  1  1  -0.1795  -5.206   0.99997   4.28128
8  1  1  -0.1794  -6.731   0.99816   4.28944
9  1  1  -0.1792  -7.264   0.99996   5.71928
10  1  1  -0.1796  -8.789   0.99995   5.72906
11  1  1  -0.1789  -9.327   1.00355   7.15778
12  1  1  -0.1788  -10.853   1.00533   7.15778
13  1  1  -0.1799  -11.409   1.00714   8.57999
14  1  1  -0.1708  -12.936   1.0107   8.5571
15  1  1  -0.2608  -13.518   1.01436   9.96775
16  1  2   0.51  -15.029   1.01967   9.94347
17  1  3  -0.4443  -15.721   1.02096   8.9388
18  1  4  -0.5603  -15.56   1.02454   11.18883
19  1  5   0.0808   1.379   0.9987  -1.02626
20  1  5   0.0808   1.39   0.11266   0.50872
21  1  5   0.0808   1.39   1.88856   0.50643
22  1  5   0.0885  -0.881   0.11661  -0.5396
23  1  5   0.0885  -0.881   1.88331  -0.53955
24  1  5   0.0894  -0.703   1.88253   1.96075
25  1  5   0.0894  -0.705   0.11618   1.9599
26  1  5   0.0896  -2.968   0.11981   0.88669
27  1  5   0.0896  -2.966   1.88654   0.8897
28  1  5   0.0894  -2.772   1.88215   3.38684
29  1  5   0.0894  -2.773   0.1159   3.38419
30  1  5   0.09  -5.038   0.11659   2.31864
31  1  5   0.09  -5.039   1.88306   2.31884
32  1  5   0.0895  -4.835   1.88351   4.8151
33  1  5   0.0895  -4.834   0.11722   4.81547
34  1  5   0.0904  -7.102   0.11332   3.75752
35  1  5   0.0904  -7.104   1.88021   3.75456
36  1  5   0.0895  -6.891   1.88405   6.25076
37  1  5   0.0895  -6.891   0.11723   6.25298
38  1  5   0.0911  -9.161   0.11539   5.19701
39  1  5   0.0911  -9.161   1.88183   5.19254
40  1  5   0.0894  -8.955   1.88751   7.68966
41  1  5   0.0894  -8.957   0.12089   7.69337
42  1  5   0.0939  -11.22   0.12202   6.62038
43  1  5   0.0939  -11.218   1.88857   6.61896
44  1  5   0.0883  -11.043   1.88984   9.11817
45  1  5   0.0883  -11.047   0.12313   9.11878
46  1  5   0.1111  -13.297   0.12992   8.01084
47  1  5   0.1111  -13.293   1.89136   8.00801
48  1  5   0.1213  -13.179   1.90688   10.50506
49  1  5   0.1213  -13.186   0.12017   10.50666
50  1  6   0.4512  -14.892   1.02387   11.89916

Bonds

1  1  2  1
2  1  3  2
3  1  4  3
4  1  5  4
5  1  6  5
6  1  7  6
7  1  8  7
8  1  9  8
9  1  10  9
10  1  11  10
11  1  12  11
12  1  13  12
13  1  14  13
14  1  15  14
15  2  16  15
16  3  17  16
17  4  18  16
18  5  19  1
19  5  20  1
20  5  21  1
21  5  22  2
22  5  23  2
23  5  24  3
24  5  25  3
25  5  26  4
26  5  27  4
27  5  28  5
28  5  29  5
29  5  30  6
30  5  31  6
31  5  32  7
32  5  33  7
33  5  34  8
34  5  35  8
35  5  36  9
36  5  37  9
37  5  38  10
38  5  39  10
39  5  40  11
40  5  41  11
41  5  42  12
42  5  43  12
43  5  44  13
44  5  45  13
45  5  46  14
46  5  47  14
47  5  48  15
48  5  49  15
49  6  50  18

Angles

1  1  1  2  3
2  1  2  3  4
3  1  3  4  5
4  1  4  5  6
5  1  5  6  7
6  1  6  7  8
7  1  7  8  9
8  1  8  9  10
9  1  9  10  11
10  1  10  11  12
11  1  11  12  13
12  1  12  13  14
13  1  13  14  15
14  2  14  15  16
15  3  15  16  17
16  4  15  16  18
17  5  2  1  19
18  5  2  1  20
19  5  2  1  21
20  5  1  2  22
21  5  1  2  23
22  5  2  3  24
23  5  2  3  25
24  5  3  4  26
25  5  3  4  27
26  5  4  5  28
27  5  4  5  29
28  5  5  6  30
29  5  5  6  31
30  5  6  7  32
31  5  6  7  33
32  5  7  8  34
33  5  7  8  35
34  5  8  9  36
35  5  8  9  37
36  5  9  10  38
37  5  9  10  39
38  5  10  11  40
39  5  10  11  41
40  5  11  12  42
41  5  11  12  43
42  5  12  13  44
43  5  12  13  45
44  5  13  14  46
45  5  13  14  47
46  5  14  15  48
47  5  14  15  49
48  6  16  18  50
49  5  15  14  47
50  5  11  10  38
51  5  12  11  40
52  7  19  1  21
53  5  4  3  24
54  7  46  14  47
55  7  20  1  21
56  5  5  4  27
57  5  7  6  31
58  7  24  3  25
59  5  14  13  45
60  5  5  4  26
61  5  9  8  34
62  5  8  7  32
63  5  15  14  46
64  5  8  7  33
65  7  48  15  49
66  7  38  10  39
67  5  6  5  28
68  5  13  12  42
69  7  42  12  43
70  7  32  7  33
71  7  44  13  45
72  8  17  16  18
73  5  4  3  25
74  7  26  4  27
75  7  22  2  23
76  5  13  12  43
77  7  28  5  29
78  7  36  9  37
79  7  34  8  35
80  5  7  6  30
81  9  16  15  48
82  7  30  6  31
83  5  11  10  39
84  5  3  2  22
85  5  3  2  23
86  5  9  8  35
87  9  16  15  49
88  5  10  9  37
89  5  10  9  36
90  7  40  11  41
91  7  19  1  20
92  5  6  5  29
93  5  12  11  41
94  5  14  13  44

Dihedrals

1  1  4  3  2  1
2  1  5  4  3  2
3  1  6  5  4  3
4  1  7  6  5  4
5  1  8  7  6  5
6  1  9  8  7  6
7  1  10  9  8  7
8  1  11  10  9  8
9  1  12  11  10  9
10  1  13  12  11  10
11  1  14  13  12  11
12  1  15  14  13  12
13  2  16  15  14  13
14  3  17  16  15  14
15  4  19  1  2  3
16  5  50  18  16  15
17  4  34  8  7  6
18  4  38  10  9  8
19  4  47  14  13  44
20  4  25  3  4  5
21  4  47  14  13  45
22  4  48  15  14  47
23  4  49  15  14  46
24  4  35  8  9  10
25  4  23  2  1  21
26  3  48  15  16  17
27  4  45  13  14  15
28  4  39  10  9  36
29  4  39  10  11  12
30  4  33  7  6  30
31  4  32  7  6  31
32  4  32  7  8  9
33  4  33  7  6  31
34  4  28  5  4  3
35  4  46  14  13  45
36  4  23  2  3  4
37  4  24  3  2  22
38  4  27  4  3  25
39  4  38  10  9  36
40  4  30  6  5  28
41  4  35  8  7  33
42  4  43  12  11  40
43  4  42  12  11  41
44  4  37  9  10  11
45  4  45  13  12  11
46  4  22  2  1  20
47  4  36  9  8  7
48  4  22  2  3  4
49  4  26  4  3  2
50  4  28  5  6  7
51  4  33  7  6  5
52  4  30  6  7  8
53  4  40  11  12  13
54  4  44  13  12  43
55  4  43  12  11  10
56  4  39  10  9  8
57  4  36  9  10  11
58  4  40  11  10  39
59  4  41  11  10  38
60  4  37  9  8  35
61  3  49  15  16  17
62  4  47  14  13  12
63  4  44  13  14  15
64  4  40  11  10  38
65  4  45  13  12  42
66  4  21  1  2  3
67  4  27  4  5  6
68  4  25  3  2  23
69  4  32  7  6  30
70  4  30  6  5  4
71  4  48  15  14  46
72  4  46  14  13  44
73  4  24  3  4  5
74  4  48  15  14  13
75  4  42  12  11  40
76  6  50  18  16  17
77  3  48  15  16  18
78  4  22  2  1  19
79  4  26  4  3  25
80  4  27  4  3  24
81  4  41  11  10  39
82  4  42  12  13  14
83  4  31  6  7  8
84  4  32  7  6  5
85  4  27  4  3  2
86  4  49  15  14  13
87  4  29  5  6  7
88  4  43  12  11  41
89  4  37  9  8  7
90  4  38  10  9  37
91  4  34  8  9  10
92  4  35  8  7  6
93  4  31  6  5  29
94  4  42  12  11  10
95  7  18  16  15  14
96  4  34  8  7  32
97  4  29  5  4  27
98  4  24  3  2  23
99  4  25  3  2  22
100  4  24  3  2  1
101  4  33  7  8  9
102  4  49  15  14  47
103  4  43  12  13  14
104  4  20  1  2  3
105  4  28  5  4  26
106  3  49  15  16  18
107  4  26  4  5  6
108  4  29  5  4  3
109  4  44  13  12  42
110  4  36  9  8  34
111  4  23  2  1  20
112  4  22  2  1  21
113  4  40  11  10  9
114  4  25  3  2  1
115  4  34  8  7  33
116  4  35  8  7  32
117  4  39  10  9  37
118  4  29  5  4  26
119  4  28  5  4  27
120  4  45  13  12  43
121  8  47  14  15  16
122  4  44  13  12  11
123  4  31  6  5  4
124  4  26  4  3  24
125  4  36  9  8  35
126  4  46  14  13  12
127  8  46  14  15  16
128  4  38  10  11  12
129  4  41  11  10  9
130  4  37  9  8  34
131  4  23  2  1  19
132  4  41  11  12  13
133  4  30  6  5  29
134  4  31  6  5  28

Impropers

1  1  16  17  18  15
2  2  1  2  19  20
3  2  1  2  19  21
4  2  2  1  3  22
5  2  2  1  3  23
6  2  3  2  4  24
7  2  3  25  2  4
8  2  4  26  3  5
9  2  4  27  5  3
10  2  5  4  28  6
11  2  5  4  29  6
12  2  6  5  30  7
13  2  6  7  5  31
14  2  7  8  6  32
15  2  7  33  6  8
16  2  8  9  34  7
17  2  8  9  35  7
18  2  9  10  36  8
19  2  9  10  37  8
20  2  10  9  11  38
21  2  10  9  11  39
22  2  11  10  12  40
23  2  11  41  10  12
24  2  12  42  11  13
25  2  12  43  13  11
26  2  13  12  44  14
27  2  13  12  45  14
28  2  14  13  46  15
29  2  14  15  13  47
30  2  15  16  14  48
31  2  15  49  14  16
